LTO                                     
           1
    16.920600    0.000000    0.000000
     0.000000   16.920600    0.000000
     0.000000    0.000000   16.920600
   Na   Cl
 108 108
Direct configuration=    50
   0.99783880  0.00431895  0.00287784
   0.01588219  0.96778688  0.33645602
   0.00698080  0.00448861  0.66452168
   0.01627229  0.31467975  0.01126151
   0.96725581  0.34475972  0.33837438
   0.00251352  0.33732767  0.67060135
   0.00957808  0.65195219  0.99595384
   0.02015174  0.63937025  0.34054283
   0.98020603  0.65705264  0.65850640
   0.32687998  0.00805574  0.00874843
   0.33910599  0.01655132  0.32056420
   0.34067425  0.01042910  0.67390459
   0.32328831  0.33828595  0.00730984
   0.30584667  0.33425773  0.34475060
   0.34812181  0.33681161  0.67883062
   0.31984160  0.70291421  0.01402347
   0.34207054  0.69111381  0.34163578
   0.30685664  0.68403483  0.68214179
   0.64277564  0.98877975  0.99289963
   0.68681038  0.01133994  0.31178954
   0.67727847  0.01498424  0.64228725
   0.67330143  0.32355254  0.01464667
   0.64267069  0.32112373  0.35368301
   0.67584344  0.33804486  0.68794328
   0.69846253  0.64560457  0.98782586
   0.65669570  0.65317416  0.35355927
   0.67098641  0.66538117  0.65652827
   0.15558954  0.17252292  0.99964987
   0.14259682  0.17649371  0.32919327
   0.17533162  0.18100940  0.67925652
   0.16160195  0.48439876  0.99143648
   0.16050789  0.47387976  0.31162642
   0.16887705  0.51485327  0.65291892
   0.15256193  0.81427620  0.99277758
   0.16196603  0.83480615  0.32066322
   0.16088165  0.82631370  0.67311282
   0.50843972  0.16835213  0.00946765
   0.50899396  0.15623471  0.31561033
   0.50225370  0.17168373  0.66599540
   0.51048048  0.48739901  0.01439011
   0.49321565  0.49195843  0.32800768
   0.47018211  0.49709794  0.67824199
   0.51542335  0.81932250  0.99602562
   0.50889301  0.83605124  0.34193382
   0.49039716  0.83909669  0.67449902
   0.84170405  0.15893911  0.00684415
   0.82646111  0.15612474  0.35988096
   0.83865201  0.13299396  0.68238287
   0.83929960  0.50732887  0.98828099
   0.84847578  0.49614503  0.33443960
   0.82135174  0.50615596  0.65116867
   0.81898161  0.83067881  0.99276180
   0.82675746  0.83548387  0.31694012
   0.81117990  0.82343604  0.65376829
   0.14547177  0.98697723  0.15757647
   0.18047669  0.99963640  0.52808930
   0.17290462  0.99563726  0.84747094
   0.14943158  0.32398862  0.14081473
   0.16024420  0.33958926  0.48967031
   0.17337194  0.33344746  0.83474118
   0.18559518  0.65571280  0.17378527
   0.15564167  0.66296254  0.51599023
   0.15123390  0.67330314  0.84257801
   0.50455945  0.01199320  0.17040325
   0.51678841  0.03066259  0.47954469
   0.49617755  0.00173726  0.82843144
   0.47959705  0.34670911  0.17383932
   0.49675556  0.35377326  0.50394222
   0.51415450  0.32159315  0.82914677
   0.51618085  0.66933512  0.12981035
   0.47727636  0.65856398  0.50267835
   0.51057343  0.65697577  0.83813589
   0.81618055  0.01118089  0.15453036
   0.82192831  0.99122879  0.50106907
   0.82200216  0.99102668  0.82878156
   0.81850790  0.33220386  0.16487710
   0.82706284  0.35087812  0.49853715
   0.83700730  0.33122827  0.82567227
   0.84770730  0.66533408  0.16701320
   0.82355402  0.66012099  0.50850696
   0.84079200  0.66414584  0.83331398
   0.99234934  0.15570831  0.18362413
   0.00390453  0.18827639  0.49492818
   0.02175353  0.16362346  0.86061058
   0.00014219  0.48904548  0.18006447
   0.99618857  0.49910479  0.50050272
   0.99630646  0.48793930  0.81917278
   0.98987866  0.83258576  0.15644167
   0.00896444  0.83455849  0.49714893
   0.97223754  0.83112127  0.82398625
   0.32613839  0.16171081  0.17730795
   0.32381405  0.18882491  0.50853720
   0.32929231  0.18910528  0.85101886
   0.34478616  0.50369160  0.13828877
   0.35198267  0.51527253  0.48187049
   0.32816457  0.49619338  0.83435335
   0.33743510  0.85717680  0.14363886
   0.34021120  0.84080758  0.49874391
   0.34155751  0.82596189  0.82560553
   0.67509731  0.19920785  0.17908090
   0.67520276  0.16243607  0.50257483
   0.66619780  0.18640043  0.82074166
   0.68955577  0.49986831  0.17652171
   0.65745840  0.47644962  0.50201472
   0.65633148  0.49809007  0.86065121
   0.65275156  0.86852763  0.16567570
   0.67123992  0.82363690  0.50094272
   0.67216404  0.81454623  0.82682902
   0.18276123  0.98767541  0.00593786
   0.16846557  0.99588570  0.33468321
   0.15825894  0.98842343  0.68455554
   0.17114181  0.33550687  0.98541152
   0.14938571  0.32893696  0.35227533
   0.20278594  0.32713414  0.67854895
   0.16630289  0.65997695  0.00180250
   0.18734872  0.65709426  0.35088464
   0.15178388  0.65882986  0.67486946
   0.49730414  0.00813479  0.00301155
   0.49649043  0.98993302  0.34086470
   0.50323227  0.01082124  0.66684027
   0.51152782  0.33012351  0.00817318
   0.49775480  0.33962863  0.32928380
   0.50363593  0.34036314  0.68022818
   0.50335649  0.65055293  0.97409698
   0.49304310  0.68458886  0.35161462
   0.50719527  0.66801661  0.67390955
   0.84710995  0.98921665  0.98504696
   0.83601580  0.01557599  0.31619273
   0.83933699  0.99971451  0.67485217
   0.85576589  0.32797834  0.99481040
   0.82275215  0.33495119  0.34588373
   0.83164498  0.33633724  0.65555513
   0.84839462  0.65772616  0.00139494
   0.82718499  0.65666860  0.32085742
   0.82578658  0.66774271  0.67688588
   0.00063925  0.16858012  0.00914077
   0.99374505  0.18915179  0.34073064
   0.01536884  0.15177333  0.65688893
   0.00207003  0.48951280  0.00446473
   0.00477020  0.48899867  0.33135063
   0.99749699  0.50919566  0.65570755
   0.00788930  0.83680620  0.00237868
   0.99412231  0.81889723  0.32084681
   0.98632805  0.81580596  0.64988854
   0.32406759  0.17625980  0.00680295
   0.31452572  0.17632274  0.32749735
   0.32143086  0.16035839  0.67171949
   0.32107784  0.48892680  0.98869035
   0.34779586  0.49420185  0.33028490
   0.31910261  0.51064647  0.64964932
   0.34241008  0.84691908  0.99506402
   0.33269132  0.85317882  0.33935792
   0.33111791  0.84027859  0.67189410
   0.67358211  0.16377192  0.99802610
   0.67268207  0.17203185  0.32478267
   0.66910257  0.14917729  0.66142487
   0.66962170  0.49603356  0.00389953
   0.66699720  0.47907126  0.34919780
   0.68028516  0.49025449  0.66023904
   0.67812514  0.82422874  0.99768565
   0.66525756  0.84464994  0.31469436
   0.66307683  0.83357751  0.66021098
   0.97369194  0.00658231  0.17723749
   0.01326859  0.00469691  0.48576675
   0.99366598  0.00199052  0.82920577
   0.99423513  0.33443215  0.17425712
   0.99506442  0.33793349  0.50559534
   0.02726003  0.32614196  0.82806285
   0.00974836  0.68211197  0.18344437
   0.98463691  0.65268125  0.50537456
   0.00465057  0.69075604  0.82873609
   0.31148187  0.98797325  0.15218220
   0.33220546  0.00931674  0.49027481
   0.33509286  0.01986209  0.84181152
   0.32092849  0.33732273  0.17766978
   0.32495682  0.33932279  0.50743488
   0.35051340  0.34621727  0.83022300
   0.37551839  0.66375383  0.17509292
   0.33142021  0.67408393  0.51632221
   0.30964192  0.67027950  0.83158755
   0.66531755  0.02852276  0.13915208
   0.66591848  0.01083187  0.48938198
   0.66335166  0.98897588  0.81567061
   0.65801533  0.33864542  0.17492287
   0.65296504  0.30454295  0.50301701
   0.66699871  0.33844377  0.85020759
   0.67303869  0.67796369  0.15264648
   0.66861657  0.65297835  0.50767685
   0.67503196  0.64909240  0.83132444
   0.15245870  0.15653930  0.16180061
   0.16697260  0.18943447  0.49466008
   0.17486924  0.17005457  0.84913405
   0.18356233  0.49087865  0.15664384
   0.16174246  0.50265034  0.49847576
   0.16381051  0.49275629  0.80013907
   0.18592598  0.80264619  0.17154808
   0.16528375  0.81210613  0.48775393
   0.14674847  0.83474313  0.83616060
   0.51249360  0.18848936  0.16311319
   0.49448681  0.18396260  0.50479422
   0.51761253  0.17577271  0.83749545
   0.50208269  0.49694077  0.17019099
   0.50472173  0.50351222  0.52039372
   0.48628939  0.49099653  0.83891452
   0.49876093  0.83364530  0.16198084
   0.50601090  0.84654741  0.52177391
   0.51692503  0.83446438  0.82887884
   0.82021873  0.18018960  0.16830594
   0.82982347  0.13289634  0.52177561
   0.81421702  0.18369233  0.81494570
   0.84678275  0.51070543  0.17182712
   0.83444521  0.50866223  0.49092526
   0.84391936  0.51379830  0.82970820
   0.83405580  0.82318563  0.15539825
   0.82700903  0.83386464  0.48919558
   0.82980598  0.80940553  0.83722351
Direct configuration=   100
   0.99865569  0.98544886  0.99524613
   0.98395868  0.99869499  0.31966913
   0.99067491  0.97669400  0.65031910
   0.98185853  0.34558782  0.02060704
   0.99559011  0.32342633  0.34026259
   0.00513883  0.32966936  0.67553060
   0.00067123  0.65229502  0.98918176
   0.99402387  0.67897705  0.33145640
   0.00495664  0.67084541  0.67456162
   0.34667156  0.01886081  0.99410502
   0.33319327  0.02116094  0.34399498
   0.31767779  0.99859797  0.68110777
   0.32113325  0.33051159  0.01324734
   0.30979790  0.33910144  0.33415862
   0.34827284  0.35188582  0.65069400
   0.34088425  0.64633501  0.00529463
   0.33424059  0.67878967  0.33565883
   0.35796383  0.66439047  0.66301807
   0.68672163  0.00028500  0.97163140
   0.65427512  0.01003713  0.32035673
   0.67928092  0.99306881  0.65336990
   0.64350988  0.34341620  0.01085584
   0.68467220  0.33847330  0.32963840
   0.65152560  0.31830903  0.67068072
   0.64447961  0.67085728  0.98095770
   0.66675578  0.67038572  0.29821307
   0.66351274  0.64475299  0.67082406
   0.17161611  0.13004391  0.00841522
   0.16480138  0.14022960  0.33241542
   0.17561360  0.14707329  0.68500328
   0.16844705  0.48978655  0.98723819
   0.17662906  0.49636541  0.33916112
   0.16915233  0.48594078  0.64538294
   0.19030458  0.84168548  0.98287864
   0.17748256  0.82218769  0.32828615
   0.15525263  0.82906745  0.64951841
   0.50299200  0.18238209  0.01196149
   0.48805263  0.16375663  0.37835476
   0.50018123  0.18831675  0.68614143
   0.52475563  0.50205608  0.97977416
   0.50537385  0.50038210  0.33541211
   0.51472220  0.50168945  0.66562865
   0.49490309  0.83185958  0.99621559
   0.48844993  0.85924168  0.35218642
   0.50005894  0.86714400  0.68159762
   0.82402082  0.15400090  0.00118282
   0.83742136  0.20541217  0.35210961
   0.85685476  0.18575591  0.67151964
   0.84593990  0.47542934  0.00780395
   0.81797848  0.53010613  0.33413859
   0.85187834  0.47869512  0.66729236
   0.84738342  0.80429964  0.97921939
   0.84234378  0.84185928  0.33436142
   0.84915210  0.81451356  0.66966202
   0.17195597  0.98966236  0.17716475
   0.17951568  0.00932329  0.49895493
   0.16072644  0.98639885  0.83536980
   0.16271551  0.34757444  0.17879973
   0.12387847  0.32856196  0.51222901
   0.18049252  0.29919877  0.82593222
   0.16824263  0.66105349  0.16890808
   0.17877335  0.66240393  0.48416603
   0.17271481  0.65493159  0.82191139
   0.49438496  0.00919416  0.15763780
   0.49401573  0.99719235  0.54333515
   0.48343589  0.00069726  0.84575039
   0.49184806  0.33841962  0.18412102
   0.48419359  0.33476271  0.51092291
   0.49357013  0.34655884  0.85917495
   0.51341899  0.63746337  0.16519394
   0.52631892  0.68326844  0.51431378
   0.48721243  0.65417234  0.85734635
   0.83372371  0.00837712  0.16266397
   0.83669391  0.98138594  0.48739557
   0.84747203  0.02231926  0.83037913
   0.82546941  0.35006467  0.17667968
   0.80435272  0.34258318  0.49729323
   0.81509209  0.32480291  0.84098589
   0.84825518  0.68844609  0.15773887
   0.84394981  0.65568264  0.50039681
   0.83883442  0.61632762  0.82837764
   0.98052631  0.16667143  0.15727949
   0.96844637  0.13691343  0.50529856
   0.00882275  0.15663598  0.81960785
   0.01390673  0.49347523  0.16110756
   0.00163762  0.49420879  0.48071075
   0.01919966  0.46816678  0.80645814
   0.00100037  0.82596116  0.15888099
   0.99931846  0.82947239  0.47789473
   0.00629929  0.84881740  0.83588477
   0.29750431  0.19276489  0.15826700
   0.32129774  0.18146305  0.50609094
   0.34232891  0.18098513  0.83845276
   0.32655224  0.50303383  0.18951852
   0.31811225  0.52762107  0.49700734
   0.33215803  0.52420878  0.83934964
   0.36453637  0.81181610  0.17812342
   0.32556778  0.84734558  0.50103820
   0.36235375  0.84346930  0.84235685
   0.66428280  0.14426966  0.17907480
   0.65398975  0.17170470  0.50558218
   0.65430764  0.14555115  0.83495149
   0.68494821  0.49674023  0.15489897
   0.66174592  0.50957734  0.50870880
   0.69051366  0.48698232  0.81717612
   0.67675074  0.83022995  0.18567675
   0.65366968  0.83077993  0.50108646
   0.66008138  0.82751741  0.81281922
   0.14559972  0.98813914  0.99717752
   0.14568236  0.99353531  0.33393896
   0.17417015  0.99859129  0.66663438
   0.15052508  0.30113499  0.01305354
   0.15735698  0.31968918  0.31940476
   0.15172107  0.33618800  0.65771598
   0.17729014  0.66279192  0.00238890
   0.18215489  0.66635816  0.32014290
   0.17307868  0.66653524  0.65535543
   0.49836640  0.01849573  0.99675954
   0.50454491  0.01331506  0.30809003
   0.47355893  0.01787022  0.70059646
   0.47695663  0.34330894  0.00882109
   0.49123767  0.32531809  0.34425077
   0.49822138  0.33820774  0.67922307
   0.49236153  0.66842995  0.01008968
   0.51311995  0.66203301  0.33090611
   0.49977486  0.67070355  0.66740009
   0.82551274  0.98903762  0.98911945
   0.83823811  0.00505057  0.33348481
   0.83552989  0.99072070  0.63673243
   0.82942191  0.32499051  0.01384295
   0.82862158  0.35590723  0.33353470
   0.82582575  0.31967055  0.67743995
   0.84847808  0.65422267  0.98934120
   0.81040365  0.68796287  0.33576968
   0.82640999  0.65698272  0.65348471
   0.99724292  0.13720079  0.00169056
   0.98877750  0.14905157  0.32416539
   0.00090342  0.17491711  0.67457149
   0.01764150  0.49370033  0.01097102
   0.99844609  0.49399853  0.32871868
   0.00734795  0.47254549  0.64095128
   0.99576593  0.82818151  0.98652417
   0.00085174  0.83140320  0.32448927
   0.00962106  0.83528696  0.65763032
   0.34346125  0.16843657  0.00649471
   0.33162927  0.16935707  0.35537958
   0.33646677  0.17965435  0.67843895
   0.32400677  0.50439880  0.00235128
   0.32764989  0.49837378  0.33146588
   0.34621251  0.50608004  0.68080247
   0.34643263  0.84016041  0.99562860
   0.33148017  0.83732152  0.31981938
   0.32704523  0.82810799  0.65754968
   0.66178572  0.18270676  0.99250795
   0.67218672  0.16570041  0.35204625
   0.66308170  0.17960448  0.67858821
   0.68511019  0.50319295  0.98308556
   0.66016525  0.51696812  0.32535398
   0.66696632  0.49073081  0.66729020
   0.68224719  0.82058102  0.98042007
   0.68360537  0.84884301  0.36016860
   0.65686656  0.84567001  0.65398406
   0.00806775  0.98223860  0.14993093
   0.99708416  0.98378807  0.50188899
   0.00447134  0.00599446  0.81962666
   0.97501015  0.32341889  0.18072112
   0.97540537  0.32710812  0.50280838
   0.00248582  0.32499791  0.83537285
   0.01470309  0.65078958  0.16887686
   0.02088861  0.67392094  0.48439723
   0.00131686  0.64019172  0.83075666
   0.32837246  0.05320018  0.19149038
   0.34800276  0.00434006  0.50578891
   0.32448664  0.97495632  0.83895307
   0.32431573  0.33889524  0.17318620
   0.32057122  0.36022676  0.49703986
   0.33596369  0.34219832  0.85146739
   0.35449271  0.66155321  0.15883052
   0.33603520  0.67811221  0.50267855
   0.34546904  0.67737706  0.84751823
   0.66783562  0.99712839  0.15911359
   0.65346561  0.99188965  0.49352013
   0.66968070  0.99004387  0.82265156
   0.66651792  0.35960498  0.18809480
   0.66132377  0.36562778  0.50469329
   0.65625993  0.33900589  0.83923802
   0.68864282  0.66258045  0.14920775
   0.66602550  0.66372293  0.49301407
   0.65780316  0.66933640  0.82734332
   0.14332104  0.17991861  0.17160943
   0.14609795  0.15059230  0.50371203
   0.18076477  0.15637207  0.83494599
   0.15462962  0.49526755  0.17629624
   0.16570967  0.49726617  0.48058736
   0.17723132  0.49721988  0.82536737
   0.18652359  0.84351675  0.14940238
   0.16799568  0.85376678  0.49388427
   0.16449218  0.82400633  0.81278064
   0.49684509  0.16924451  0.20551847
   0.48621281  0.17840363  0.52819293
   0.48570576  0.15720011  0.84694852
   0.52760361  0.49547369  0.14932120
   0.49072850  0.51260213  0.50504268
   0.51648279  0.49554219  0.83170812
   0.52484588  0.84582060  0.15580371
   0.48924560  0.83616263  0.50428083
   0.50438905  0.84960755  0.83859855
   0.82146489  0.16549882  0.15148681
   0.81989799  0.17071709  0.50473890
   0.83138989  0.16438183  0.85911147
   0.83465048  0.51328083  0.16666288
   0.83348399  0.51134914  0.49027255
   0.86222587  0.47169455  0.82942331
   0.83023321  0.86170218  0.16462611
   0.84466482  0.83177179  0.50021869
   0.84992254  0.83154267  0.81399450
Direct configuration=   150
   0.00436246  0.96501010  0.98411408
   0.01714023  0.99419948  0.31456966
   0.99414961  0.00025741  0.67784850
   0.01498430  0.30470936  0.99771921
   0.99175958  0.32928959  0.32798119
   0.95408777  0.31686705  0.65000665
   0.02510754  0.64793841  0.97619123
   0.00787202  0.67286916  0.30491052
   0.03022276  0.64477114  0.64902344
   0.31815190  0.98243057  0.00793072
   0.32883204  0.99783094  0.34595067
   0.34010304  0.01142889  0.67506134
   0.32760537  0.32368118  0.99671083
   0.34351668  0.34062437  0.35338905
   0.29900688  0.34576536  0.67618661
   0.34367463  0.68123981  0.00012476
   0.34735188  0.65772044  0.32062238
   0.33569978  0.66462558  0.64626591
   0.66012167  0.99236837  0.02376425
   0.66881130  0.99848976  0.35167347
   0.67368608  0.00583047  0.68090795
   0.63984450  0.33521431  0.98583279
   0.64106332  0.36272822  0.34663020
   0.65982196  0.36792751  0.65941144
   0.68613476  0.67683759  0.00043082
   0.66336629  0.66527851  0.34329190
   0.67805570  0.67845012  0.65727361
   0.15462649  0.17068491  0.00171597
   0.16561171  0.18464991  0.34818670
   0.15601233  0.18214700  0.64739398
   0.16647686  0.50729199  0.01997340
   0.14702152  0.52165188  0.33788141
   0.18266833  0.49869314  0.67506142
   0.16933425  0.82297364  0.99502979
   0.17105770  0.82933410  0.31873964
   0.19407719  0.83199036  0.65245270
   0.49136235  0.18206620  0.02058693
   0.49353121  0.18978614  0.33615999
   0.48291296  0.16031996  0.68772262
   0.48538736  0.50381416  0.00566594
   0.49564646  0.50128017  0.33157926
   0.50638846  0.51932245  0.66462315
   0.51213708  0.85241297  0.01176582
   0.51483927  0.84553180  0.32191109
   0.50568070  0.81355433  0.66732755
   0.80368777  0.15654644  0.02881122
   0.81414688  0.16018699  0.33325375
   0.79818628  0.16923399  0.65867566
   0.85485541  0.52171641  0.99780393
   0.83276498  0.50697636  0.32571701
   0.83278848  0.49567302  0.65756244
   0.84201023  0.84162839  0.97344737
   0.84094104  0.83794481  0.33785962
   0.84920373  0.79911869  0.65969612
   0.18313911  0.00504321  0.14506602
   0.13755774  0.01271565  0.49408957
   0.16752540  0.97949340  0.80987092
   0.15339304  0.32848077  0.18458261
   0.16804428  0.31925859  0.49951035
   0.14661311  0.32780833  0.83426953
   0.15786643  0.68474227  0.13919808
   0.17344993  0.67161474  0.47476168
   0.18284241  0.67210683  0.81747121
   0.48557882  0.01415325  0.17296926
   0.47510971  0.01202684  0.50158545
   0.50058583  0.00933878  0.85117502
   0.51814127  0.33231182  0.17751952
   0.48464244  0.35206216  0.50791702
   0.47936999  0.33213062  0.82153234
   0.49452981  0.67242115  0.15996382
   0.48076333  0.65358150  0.47009563
   0.52242391  0.68143142  0.84815047
   0.84364990  0.97973048  0.15911154
   0.83256760  0.99954701  0.49951695
   0.83805926  0.00103927  0.82066329
   0.82928880  0.34275999  0.17332879
   0.83495071  0.35181064  0.48810504
   0.83168002  0.29545118  0.86529858
   0.82423163  0.66184535  0.15198688
   0.84739437  0.67648846  0.48626168
   0.84778542  0.66760225  0.82818028
   0.00045422  0.14275561  0.16396997
   0.99933383  0.15917963  0.49510715
   0.00061391  0.15761348  0.84054095
   0.97246124  0.50569301  0.17582096
   0.99512769  0.50779865  0.50516281
   0.03177530  0.46627464  0.85256853
   0.01987938  0.83310037  0.15416847
   0.02217025  0.80933525  0.50883037
   0.02922744  0.81680073  0.81985910
   0.32807023  0.19295852  0.17436961
   0.32143765  0.15980814  0.51385121
   0.32456340  0.15991203  0.84546809
   0.34216305  0.49847397  0.15281898
   0.33601293  0.49965345  0.51343227
   0.35019856  0.48747593  0.84519074
   0.34028802  0.81703530  0.17690083
   0.32779745  0.83699536  0.49462708
   0.33025854  0.81537519  0.81763184
   0.65499283  0.16759443  0.17709260
   0.65772055  0.17044034  0.52242699
   0.65541154  0.17870476  0.84710770
   0.65672161  0.50442806  0.15298789
   0.67396465  0.53566430  0.48383068
   0.69471143  0.46729360  0.82692055
   0.68638693  0.83114824  0.15185385
   0.64512729  0.85632791  0.50974574
   0.66689602  0.84282898  0.82299745
   0.17031759  0.98966428  0.98772786
   0.18405321  0.00206257  0.32555800
   0.15176225  0.98048062  0.64232682
   0.16705478  0.33731679  0.00221588
   0.18477303  0.33941196  0.33224503
   0.16279456  0.32255858  0.69052489
   0.17784679  0.66462675  0.97946292
   0.14836384  0.67910745  0.31276593
   0.18880979  0.66271655  0.64709238
   0.51159018  0.01103922  0.02305314
   0.49229843  0.01476113  0.35636869
   0.50135427  0.99767596  0.67801370
   0.50070499  0.33535920  0.02302780
   0.50350475  0.34840124  0.34505779
   0.49746168  0.34681469  0.67454740
   0.51100866  0.66411954  0.01794237
   0.50250105  0.67290849  0.33613610
   0.51474284  0.66987954  0.65537123
   0.83497049  0.00516813  0.00735768
   0.80872570  0.00850177  0.32744051
   0.83255912  0.00666799  0.67093625
   0.79701426  0.31948672  0.01659651
   0.83536172  0.35082431  0.32336816
   0.79956671  0.34970310  0.68489854
   0.82775322  0.67330124  0.98546378
   0.85543553  0.67497436  0.32296448
   0.85749652  0.64660633  0.66588821
   0.98968228  0.16398224  0.99737646
   0.98351605  0.17309295  0.33018053
   0.98977372  0.15922690  0.65721203
   0.00464014  0.48673548  0.99557787
   0.99312628  0.51697964  0.33450438
   0.01468178  0.50245395  0.65890016
   0.01305257  0.81209057  0.98664779
   0.00127666  0.84221411  0.32211694
   0.01281572  0.80639822  0.66952122
   0.31158950  0.16498938  0.01116538
   0.32203912  0.17511480  0.35887417
   0.32297367  0.18555682  0.68224991
   0.34058336  0.48444659  0.00483151
   0.33871116  0.49954154  0.35106335
   0.34785408  0.50409869  0.67599769
   0.34174367  0.83299528  0.02488250
   0.34406081  0.82269635  0.32836690
   0.35437038  0.83355287  0.67187302
   0.64760918  0.15057630  0.02270761
   0.65423104  0.19330364  0.34630682
   0.65386227  0.16082367  0.67909845
   0.67118783  0.51419853  0.98784049
   0.66813559  0.52197763  0.32198686
   0.67782590  0.52288500  0.64939953
   0.67273556  0.84862733  0.98974664
   0.66700352  0.84430114  0.31635987
   0.66736991  0.82415985  0.67323648
   0.02028015  0.00053849  0.15634944
   0.98609478  0.00423752  0.48276060
   0.01389908  0.98343095  0.82663784
   0.00780374  0.34802844  0.15458346
   0.98675152  0.30742659  0.48458708
   0.98821325  0.31167830  0.85000564
   0.98662690  0.66600234  0.13398186
   0.00633849  0.65979270  0.48894184
   0.00734972  0.64877471  0.81447062
   0.33332838  0.01616639  0.17807841
   0.31141747  0.00378576  0.51793255
   0.32949579  0.01013010  0.84169585
   0.33030164  0.34941184  0.16940048
   0.32829243  0.31460026  0.50830640
   0.31066570  0.31561288  0.84008153
   0.30746483  0.65296331  0.17441774
   0.33329911  0.67326781  0.47546122
   0.34012715  0.64605391  0.84044914
   0.66903556  0.97859598  0.17692320
   0.63843317  0.00744126  0.53454963
   0.65710380  0.00379177  0.84660182
   0.67197904  0.30581744  0.16203487
   0.64736723  0.34882433  0.49159607
   0.64637469  0.31850627  0.83229570
   0.67105069  0.68002369  0.15516013
   0.69520901  0.69589287  0.49470720
   0.68593222  0.67404215  0.82414928
   0.16339699  0.15634825  0.17326089
   0.15094879  0.16716117  0.49585014
   0.15532957  0.14100432  0.83668099
   0.18051924  0.51179658  0.17613066
   0.17173840  0.49732442  0.51275122
   0.18122285  0.49983864  0.82999214
   0.17150002  0.83260298  0.16265478
   0.17539662  0.81102780  0.48892574
   0.17638093  0.82644729  0.83257223
   0.49759493  0.18704216  0.16501680
   0.49777586  0.16101718  0.52119944
   0.49924409  0.17881728  0.85757437
   0.49572558  0.49946829  0.16998966
   0.49189457  0.50814980  0.49730880
   0.50001426  0.52269009  0.84291225
   0.51161274  0.82229905  0.17160720
   0.49950198  0.84009805  0.47515264
   0.49660311  0.83092587  0.85336244
   0.83122754  0.14569234  0.17776444
   0.82262806  0.18535784  0.50046347
   0.84858670  0.14546993  0.79382164
   0.82134394  0.51068277  0.16004457
   0.82547249  0.49885092  0.49695418
   0.84943005  0.48237133  0.84721909
   0.86855933  0.80807831  0.17036854
   0.84578184  0.82686068  0.49882553
   0.85815239  0.83804781  0.81927353
Direct configuration=   200
   0.02018428  0.01492102  0.00541632
   0.01316166  0.01086130  0.31504495
   0.98868066  0.95676765  0.67612149
   0.00062900  0.34477661  0.99728954
   0.00752227  0.36183829  0.32099530
   0.99432973  0.34171832  0.65416861
   0.99565854  0.65112415  0.97792991
   0.98539334  0.67260983  0.30448302
   0.01484235  0.66749805  0.66463734
   0.33477752  0.00575659  0.00636503
   0.33794112  0.01286936  0.33098189
   0.32794784  0.97649517  0.66927874
   0.33775258  0.31606360  0.02495018
   0.31297227  0.32498908  0.33958019
   0.34625999  0.32795386  0.67037278
   0.34204411  0.65995846  0.97872961
   0.31571224  0.67461668  0.32812272
   0.34898669  0.66488180  0.67328285
   0.66858126  0.98835609  0.02022033
   0.64505365  0.00427273  0.34419778
   0.65453026  0.00255599  0.69337649
   0.68985562  0.31952909  0.01586673
   0.68204902  0.32105423  0.31774692
   0.65444958  0.34952873  0.66046028
   0.66495102  0.66525895  0.98515146
   0.68024116  0.69386181  0.32886725
   0.70200632  0.69562456  0.66329675
   0.14225020  0.17745522  0.98993692
   0.16241405  0.18523850  0.31786189
   0.15284535  0.13969750  0.68432436
   0.17997290  0.50062365  0.99345440
   0.17873431  0.50129326  0.33302338
   0.15785874  0.50718678  0.68090682
   0.18175989  0.82575713  0.99206607
   0.17004976  0.84603825  0.34110606
   0.17713749  0.81708362  0.66295891
   0.49070616  0.14678799  0.99752231
   0.48655626  0.18355700  0.33234894
   0.48386108  0.15824107  0.66198370
   0.50639345  0.50083916  0.00790074
   0.49813482  0.51528466  0.36237045
   0.48776900  0.49506855  0.68389651
   0.49263763  0.81672844  0.01511654
   0.49841534  0.82132522  0.33594319
   0.51104334  0.83922959  0.65443191
   0.84005013  0.16328556  0.99303984
   0.81942877  0.15532339  0.33306030
   0.79504894  0.18557804  0.66469587
   0.80063712  0.49392458  0.00891770
   0.83624020  0.49242706  0.32471943
   0.83802115  0.51670224  0.66276049
   0.86077691  0.84767307  0.00860515
   0.83894862  0.81762201  0.32456355
   0.84362238  0.82122186  0.66134151
   0.16202185  0.99682691  0.17288684
   0.16156054  0.01166816  0.48943940
   0.19332090  0.00221291  0.84299015
   0.19025707  0.34270351  0.14735606
   0.17585392  0.34432776  0.53575115
   0.15786949  0.32697416  0.82027668
   0.17206123  0.64886082  0.15946709
   0.15475140  0.64612704  0.48938608
   0.18218241  0.65206811  0.82386798
   0.50679379  0.98241545  0.19127640
   0.47375028  0.00022443  0.51546903
   0.50195916  0.00092322  0.84684185
   0.47689000  0.36000984  0.16896853
   0.50308147  0.33332640  0.49274058
   0.50580433  0.33103374  0.83955838
   0.49505569  0.67503312  0.16343812
   0.48755292  0.66048467  0.50504871
   0.51671458  0.66293033  0.81028614
   0.84458891  0.99778171  0.19337259
   0.83274398  0.00387466  0.51237554
   0.81605855  0.99740105  0.85285922
   0.82460189  0.29591832  0.14039343
   0.82415411  0.32169460  0.48247944
   0.83533747  0.34979323  0.81528081
   0.82695108  0.66279030  0.15562010
   0.83729493  0.67968468  0.49553951
   0.87118836  0.64803035  0.82600635
   0.00407163  0.18941186  0.16791457
   0.98507490  0.19336122  0.48621767
   0.96838069  0.13547130  0.80472507
   0.01625003  0.50241287  0.15652248
   0.02032102  0.49718642  0.50626236
   0.97790841  0.47217193  0.82846375
   0.00246663  0.82740896  0.15285018
   0.00376492  0.82536431  0.48185040
   0.98680367  0.84115590  0.83682851
   0.33554672  0.14456619  0.16743824
   0.32599508  0.15603337  0.49164602
   0.31490315  0.16327859  0.85824739
   0.30561061  0.49730995  0.17446322
   0.34341912  0.48265945  0.49109401
   0.32051031  0.49015376  0.84344640
   0.31763441  0.81463117  0.14722858
   0.34523220  0.82781843  0.50002044
   0.33665079  0.83743144  0.85050252
   0.65885076  0.16199101  0.18268523
   0.65474860  0.17349010  0.48836147
   0.66253316  0.15760329  0.84306190
   0.65529872  0.50440024  0.16377155
   0.66682344  0.50288702  0.50263413
   0.65699512  0.52142506  0.83777374
   0.67396410  0.83999149  0.18390940
   0.69692069  0.83967324  0.50095351
   0.68626689  0.82738685  0.86978663
   0.18806098  0.99453924  0.99041011
   0.16632919  0.02445590  0.32014552
   0.16673014  0.99615536  0.68015844
   0.18092179  0.33942431  0.00625729
   0.14990943  0.35312702  0.34823667
   0.13296892  0.35137325  0.67183178
   0.17039751  0.65859396  0.99979623
   0.17726885  0.66118494  0.32681530
   0.17625573  0.65866076  0.67023223
   0.48989877  0.00209610  0.01761701
   0.49288165  0.01517716  0.34087674
   0.50700945  0.98873042  0.66574276
   0.48369414  0.34020697  0.98507426
   0.48615082  0.34859684  0.33030208
   0.48580052  0.34910099  0.66292943
   0.50811754  0.66557116  0.97100563
   0.50619246  0.66157506  0.32287389
   0.51215224  0.67163033  0.66014440
   0.82956510  0.99243408  0.99733830
   0.84125705  0.99576285  0.35435015
   0.82072475  0.97684072  0.66456455
   0.84250242  0.32226923  0.98223688
   0.83321817  0.31614024  0.32718536
   0.82971041  0.34884844  0.65204223
   0.85243543  0.68914043  0.99117184