PROCAR lm decomposed
# of k-points:    8         # of bands: 112         # of ions:  25

 k-point    1 :    0.25000000 0.12500000 0.25000000     weight = 0.12500000

band   1 # energy  -32.60616723 # occ.  1.00000000
 
ion      s     py     pz     px    dxy    dyz    dz2    dxz    dx2    tot
  1  0.000  0.003  0.426  0.044  0.000  0.000  0.000  0.000  0.000  0.473
  2  0.000  0.000  0.000  0.000  0.000  0.000  0.000  0.000  0.000  0.000
  3  0.000  0.000  0.001  0.000  0.000  0.000  0.000  0.000  0.000  0.001
  4  0.000  0.000  0.314  0.070  0.000  0.000  0.000  0.000  0.000  0.385
  5  0.000  0.000  0.005  0.011  0.000  0.000  0.000  0.000  0.000  0.017
  6  0.000  0.001  0.008  0.001  0.000  0.000  0.000  0.000  0.000  0.010
  7  0.000  0.008  0.079  0.000  0.000  0.000  0.000  0.000  0.000  0.088
  8  0.000  0.000  0.001  0.003  0.000  0.000  0.000  0.000  0.000  0.005
  9  0.002  0.000  0.000  0.000  0.000  0.000  0.000  0.000  0.000  0.003
 10  0.000  0.000  0.000  0.000  0.000  0.000  0.000  0.000  0.000  0.000
 11  0.000  0.000  0.000  0.000  0.000  0.000  0.000  0.000  0.000  0.000
 12  0.000  0.000  0.000  0.000  0.000  0.000  0.000  0.000  0.000  0.000
 13  0.001  0.000  0.000  0.000  0.000  0.000  0.000  0.000  0.000  0.001
 14  0.000  0.000  0.000  0.000  0.000  0.000  0.000  0.000  0.000  0.000
 15  0.000  0.000  0.000  0.000  0.000  0.000  0.000  0.000  0.000  0.000
 16  0.000  0.000  0.000  0.000  0.000  0.000  0.000  0.000  0.000  0.001
 17  0.000  0.000  0.000  0.000  0.000  0.000  0.000  0.000  0.000  0.000
 18  0.002  0.000  0.000  0.000  0.000  0.000  0.000  0.000  0.000  0.002
 19  0.000  0.000  0.000  0.000  0.000  0.000  0.000  0.000  0.000  0.000
 20  0.000  0.000  0.000  0.000  0.000  0.000  0.000  0.000  0.000  0.000
 21  0.000  0.000  0.000  0.000  0.000  0.000  0.000  0.000  0.000  0.000
 22  0.000  0.000  0.000  0.000  0.000  0.000  0.000  0.000  0.000  0.000
 23  0.001  0.000  0.000  0.000  0.000  0.000  0.000  0.000  0.000  0.001
 24  0.000  0.000  0.000  0.000  0.000  0.000  0.000  0.000  0.000  0.000
 25  0.000  0.000  0.000  0.000  0.000  0.000  0.000  0.000  0.000  0.000
tot  0.006  0.013  0.836  0.131  0.000  0.000  0.000  0.000  0.000  0.986
 
band   2 # energy  -32.57493448 # occ.  1.00000000
 
ion      s     py     pz     px    dxy    dyz    dz2    dxz    dx2    tot
  1  0.000  0.004  0.152  0.084  0.000  0.000  0.000  0.000  0.000  0.240
  2  0.000  0.000  0.000  0.000  0.000  0.000  0.000  0.000  0.000  0.000
  3  0.000  0.002  0.028  0.000  0.000  0.000  0.000  0.000  0.000  0.031
  4  0.000  0.000  0.304  0.139  0.000  0.000  0.000  0.000  0.000  0.443
  5  0.000  0.001  0.146  0.036  0.000  0.000  0.000  0.000  0.000  0.183
  6  0.000  0.002  0.010  0.003  0.000  0.000  0.000  0.000  0.000  0.015
  7  0.000  0.004  0.054  0.000  0.000  0.000  0.000  0.000  0.000  0.057
  8  0.000  0.000  0.005  0.004  0.000  0.000  0.000  0.000  0.000  0.009
  9  0.001  0.000  0.000  0.000  0.000  0.000  0.000  0.000  0.000  0.001
 10  0.001  0.000  0.000  0.000  0.000  0.000  0.000  0.000  0.000  0.002
 11  0.000  0.000  0.000  0.000  0.000  0.000  0.000  0.000  0.000  0.000
 12  0.000  0.000  0.000  0.000  0.000  0.000  0.000  0.000  0.000  0.000
 13  0.000  0.000  0.000  0.000  0.000  0.000  0.000  0.000  0.000  0.000
 14  0.000  0.000  0.000  0.000  0.000  0.000  0.000  0.000  0.000  0.000
 15  0.000  0.000  0.000  0.000  0.000  0.000  0.000  0.000  0.000  0.000
 16  0.000  0.000  0.000  0.000  0.000  0.000  0.000  0.000  0.000  0.001
 17  0.000  0.000  0.000  0.000  0.000  0.000  0.000  0.000  0.000  0.001
 18  0.002  0.000  0.000  0.000  0.000  0.000  0.000  0.000  0.000  0.002
 19  0.000  0.000  0.000  0.000  0.000  0.000  0.000  0.000  0.000  0.000
 20  0.000  0.000  0.000  0.000  0.000  0.000  0.000  0.000  0.000  0.000
 21  0.000  0.000  0.000  0.000  0.000  0.000  0.000  0.000  0.000  0.000
 22  0.000  0.000  0.000  0.000  0.000  0.000  0.000  0.000  0.000  0.000
 23  0.000  0.000  0.000  0.000  0.000  0.000  0.000  0.000  0.000  0.000
 24  0.000  0.000  0.000  0.000  0.000  0.000  0.000  0.000  0.000  0.001
 25  0.000  0.000  0.000  0.000  0.000  0.000  0.000  0.000  0.000  0.000
tot  0.006  0.013  0.699  0.267  0.000  0.000  0.000  0.000  0.000  0.986
 
band   3 # energy  -32.54170928 # occ.  1.00000000
 
ion      s     py     pz     px    dxy    dyz    dz2    dxz    dx2    tot
  1  0.000  0.022  0.073  0.253  0.000  0.000  0.000  0.000  0.000  0.349
  2  0.000  0.000  0.000  0.000  0.000  0.000  0.000  0.000  0.000  0.000
  3  0.000  0.004  0.060  0.000  0.000  0.000  0.000  0.000  0.000  0.064
  4  0.000  0.000  0.012  0.269  0.000  0.000  0.000  0.000  0.000  0.281
  5  0.000  0.002  0.179  0.009  0.000  0.000  0.000  0.000  0.000  0.190
  6  0.000  0.000  0.004  0.000  0.000  0.000  0.000  0.000  0.000  0.004
  7  0.000  0.001  0.077  0.000  0.000  0.000  0.000  0.000  0.000  0.078
  8  0.000  0.000  0.010  0.004  0.000  0.000  0.000  0.000  0.000  0.015
  9  0.000  0.000  0.000  0.000  0.000  0.000  0.000  0.000  0.000  0.001
 10  0.002  0.000  0.000  0.000  0.000  0.000  0.000  0.000  0.000  0.002
 11  0.000  0.000  0.000  0.000  0.000  0.000  0.000  0.000  0.000  0.000
 12  0.000  0.000  0.000  0.000  0.000  0.000  0.000  0.000  0.000  0.000
 13  0.000  0.000  0.000  0.000  0.000  0.000  0.000  0.000  0.000  0.001
 14  0.000  0.000  0.000  0.000  0.000  0.000  0.000  0.000  0.000  0.000
 15  0.000  0.000  0.000  0.000  0.000  0.000  0.000  0.000  0.000  0.000
 16  0.000  0.000  0.000  0.000  0.000  0.000  0.000  0.000  0.000  0.000
 17  0.001  0.000  0.000  0.000  0.000  0.000  0.000  0.000  0.000  0.001
 18  0.000  0.000  0.000  0.000  0.000  0.000  0.000  0.000  0.000  0.001
 19  0.000  0.000  0.000  0.000  0.000  0.000  0.000  0.000  0.000  0.000
 20  0.000  0.000  0.000  0.000  0.000  0.000  0.000  0.000  0.000  0.000
 21  0.000  0.000  0.000  0.000  0.000  0.000  0.000  0.000  0.000  0.000
 22  0.000  0.000  0.000  0.000  0.000  0.000  0.000  0.000  0.000  0.000
 23  0.000  0.000  0.000  0.000  0.000  0.000  0.000  0.000  0.000  0.000
 24  0.001  0.000  0.000  0.000  0.000  0.000  0.000  0.000  0.000  0.001
 25  0.000  0.000  0.000  0.000  0.000  0.000  0.000  0.000  0.000  0.000
tot  0.005  0.030  0.415  0.537  0.000  0.000  0.000  0.000  0.000  0.987
 
band   4 # energy  -32.51552848 # occ.  1.00000000
 
ion      s     py     pz     px    dxy    dyz    dz2    dxz    dx2    tot
  1  0.000  0.662  0.028  0.054  0.000  0.000  0.000  0.000  0.000  0.744
  2  0.000  0.000  0.000  0.000  0.000  0.000  0.000  0.000  0.000  0.000
  3  0.000  0.000  0.006  0.000  0.000  0.000  0.000  0.000  0.000  0.007
  4  0.000  0.003  0.002  0.003  0.000  0.000  0.000  0.000  0.000  0.008
  5  0.000  0.000  0.009  0.005  0.000  0.000  0.000  0.000  0.000  0.014
  6  0.000  0.000  0.001  0.004  0.000  0.000  0.000  0.000  0.000  0.005
  7  0.000  0.111  0.091  0.001  0.000  0.000  0.000  0.000  0.000  0.202
  8  0.000  0.000  0.004  0.001  0.000  0.000  0.000  0.000  0.000  0.004
  9  0.000  0.000  0.000  0.000  0.000  0.000  0.000  0.000  0.000  0.000
 10  0.000  0.000  0.000  0.000  0.000  0.000  0.000  0.000  0.000  0.000
 11  0.000  0.000  0.000  0.000  0.000  0.000  0.000  0.000  0.000  0.000
 12  0.000  0.000  0.000  0.000  0.000  0.000  0.000  0.000  0.000  0.000
 13  0.001  0.002  0.000  0.000  0.000  0.000  0.000  0.000  0.000  0.003
 14  0.000  0.000  0.000  0.000  0.000  0.000  0.000  0.000  0.000  0.000
 15  0.000  0.000  0.000  0.000  0.000  0.000  0.000  0.000  0.000  0.000
 16  0.000  0.000  0.000  0.000  0.000  0.000  0.000  0.000  0.000  0.000
 17  0.000  0.000  0.000  0.000  0.000  0.000  0.000  0.000  0.000  0.000
 18  0.000  0.000  0.000  0.000  0.000  0.000  0.000  0.000  0.000  0.000
 19  0.000  0.000  0.000  0.000  0.000  0.000  0.000  0.000  0.000  0.000
 20  0.000  0.000  0.000  0.000  0.000  0.000  0.000  0.000  0.000  0.000
 21  0.000  0.000  0.000  0.000  0.000  0.000  0.000  0.000  0.000  0.000
 22  0.000  0.000  0.000  0.000  0.000  0.000  0.000  0.000  0.000  0.000
 23  0.000  0.001  0.000  0.000  0.000  0.000  0.000  0.000  0.000  0.001
 24  0.000  0.000  0.000  0.000  0.000  0.000  0.000  0.000  0.000  0.000
 25  0.000  0.000  0.000  0.000  0.000  0.000  0.000  0.000  0.000  0.000
tot  0.002  0.779  0.140  0.067  0.000  0.000  0.000  0.000  0.000  0.988
 
band   5 # energy  -32.49621716 # occ.  1.00000000
 
ion      s     py     pz     px    dxy    dyz    dz2    dxz    dx2    tot
  1  0.000  0.015  0.004  0.152  0.000  0.000  0.000  0.000  0.000  0.171
  2  0.000  0.000  0.000  0.000  0.000  0.000  0.000  0.000  0.000  0.000
  3  0.000  0.003  0.250  0.001  0.000  0.000  0.000  0.000  0.000  0.255
  4  0.000  0.001  0.119  0.108  0.000  0.000  0.000  0.000  0.000  0.228
  5  0.000  0.031  0.162  0.079  0.000  0.000  0.000  0.000  0.000  0.272
  6  0.000  0.002  0.014  0.014  0.000  0.000  0.000  0.000  0.000  0.030
  7  0.000  0.007  0.006  0.002  0.000  0.000  0.000  0.000  0.000  0.015
  8  0.000  0.000  0.008  0.002  0.000  0.000  0.000  0.000  0.000  0.011
  9  0.000  0.000  0.000  0.000  0.000  0.000  0.000  0.000  0.000  0.000
 10  0.000  0.000  0.000  0.000  0.000  0.000  0.000  0.000  0.000  0.000
 11  0.000  0.000  0.000  0.000  0.000  0.000  0.000  0.000  0.000  0.000
 12  0.000  0.000  0.000  0.000  0.000  0.000  0.000  0.000  0.000  0.000
 13  0.000  0.000  0.000  0.000  0.000  0.000  0.000  0.000  0.000  0.000
 14  0.001  0.000  0.000  0.000  0.000  0.000  0.000  0.000  0.000  0.001
 15  0.000  0.000  0.000  0.000  0.000  0.000  0.000  0.000  0.000  0.000
 16  0.000  0.000  0.000  0.000  0.000  0.000  0.000  0.000  0.000  0.000
 17  0.001  0.000  0.000  0.000  0.000  0.000  0.000  0.000  0.000  0.001
 18  0.000  0.000  0.000  0.000  0.000  0.000  0.000  0.000  0.000  0.000
 19  0.000  0.000  0.000  0.000  0.000  0.000  0.000  0.000  0.000  0.000
 20  0.001  0.000  0.000  0.000  0.000  0.000  0.000  0.000  0.000  0.001
 21  0.000  0.000  0.000  0.000  0.000  0.000  0.000  0.000  0.000  0.000
 22  0.000  0.000  0.000  0.000  0.000  0.000  0.000  0.000  0.000  0.000
 23  0.000  0.000  0.000  0.000  0.000  0.000  0.000  0.000  0.000  0.000
 24  0.001  0.000  0.000  0.000  0.000  0.000  0.000  0.000  0.000  0.001
 25  0.000  0.000  0.000  0.000  0.000  0.000  0.000  0.000  0.000  0.000
tot  0.004  0.059  0.564  0.360  0.000  0.000  0.000  0.000  0.000  0.987
 
band   6 # energy  -32.48635414 # occ.  1.00000000
 
ion      s     py     pz     px    dxy    dyz    dz2    dxz    dx2    tot
  1  0.000  0.050  0.020  0.305  0.000  0.000  0.000  0.000  0.000  0.376
  2  0.000  0.000  0.000  0.000  0.000  0.000  0.000  0.000  0.000  0.000
  3  0.000  0.000  0.066  0.002  0.000  0.000  0.000  0.000  0.000  0.068
  4  0.000  0.015  0.075  0.250  0.000  0.000  0.000  0.000  0.000  0.339
  5  0.000  0.015  0.008  0.010  0.000  0.000  0.000  0.000  0.000  0.033
  6  0.000  0.000  0.013  0.013  0.000  0.000  0.000  0.000  0.000  0.027
  7  0.000  0.044  0.088  0.003  0.000  0.000  0.000  0.000  0.000  0.135
  8  0.000  0.000  0.004  0.001  0.000  0.000  0.000  0.000  0.000  0.005
  9  0.000  0.000  0.000  0.000  0.000  0.000  0.000  0.000  0.000  0.000
 10  0.000  0.000  0.000  0.000  0.000  0.000  0.000  0.000  0.000  0.000
 11  0.000  0.000  0.000  0.000  0.000  0.000  0.000  0.000  0.000  0.000
 12  0.000  0.000  0.000  0.000  0.000  0.000  0.000  0.000  0.000  0.000
 13  0.000  0.000  0.000  0.000  0.000  0.000  0.000  0.000  0.000  0.000
 14  0.000  0.000  0.000  0.000  0.000  0.000  0.000  0.000  0.000  0.000
 15  0.000  0.000  0.000  0.000  0.000  0.000  0.000  0.000  0.000  0.000
 16  0.000  0.000  0.000  0.000  0.000  0.000  0.000  0.000  0.000  0.000
 17  0.001  0.000  0.000  0.000  0.000  0.000  0.000  0.000  0.000  0.001
 18  0.000  0.000  0.000  0.000  0.000  0.000  0.000  0.000  0.000  0.000
 19  0.000  0.000  0.000  0.000  0.000  0.000  0.000  0.000  0.000  0.000
 20  0.000  0.000  0.000  0.000  0.000  0.000  0.000  0.000  0.000  0.000
 21  0.000  0.000  0.000  0.000  0.000  0.000  0.000  0.000  0.000  0.000
 22  0.000  0.000  0.000  0.000  0.000  0.000  0.000  0.000  0.000  0.000
 23  0.000  0.000  0.000  0.000  0.000  0.000  0.000  0.000  0.000  0.000
 24  0.000  0.000  0.000  0.000  0.000  0.000  0.000  0.000  0.000  0.000
 25  0.000  0.000  0.000  0.000  0.000  0.000  0.000  0.000  0.000  0.000
tot  0.003  0.125  0.276  0.585  0.000  0.000  0.000  0.000  0.000  0.988
 
band   7 # energy  -32.46226060 # occ.  1.00000000
 
ion      s     py     pz     px    dxy    dyz    dz2    dxz    dx2    tot
  1  0.000  0.005  0.002  0.009  0.000  0.000  0.000  0.000  0.000  0.016
  2  0.000  0.000  0.000  0.000  0.000  0.000  0.000  0.000  0.000  0.000
  3  0.000  0.007  0.000  0.002  0.000  0.000  0.000  0.000  0.000  0.009
  4  0.000  0.865  0.005  0.006  0.000  0.000  0.000  0.000  0.000  0.876
  5  0.000  0.027  0.010  0.002  0.000  0.000  0.000  0.000  0.000  0.039
  6  0.000  0.021  0.013  0.000  0.000  0.000  0.000  0.000  0.000  0.035
  7  0.000  0.007  0.003  0.002  0.000  0.000  0.000  0.000  0.000  0.011
  8  0.000  0.000  0.000  0.000  0.000  0.000  0.000  0.000  0.000  0.000
  9  0.000  0.000  0.000  0.000  0.000  0.000  0.000  0.000  0.000  0.000
 10  0.000  0.000  0.000  0.000  0.000  0.000  0.000  0.000  0.000  0.000
 11  0.000  0.000  0.000  0.000  0.000  0.000  0.000  0.000  0.000  0.000
 12  0.000  0.000  0.000  0.000  0.000  0.000  0.000  0.000  0.000  0.000
 13  0.000  0.000  0.000  0.000  0.000  0.000  0.000  0.000  0.000  0.000
 14  0.000  0.000  0.000  0.000  0.000  0.000  0.000  0.000  0.000  0.000
 15  0.000  0.000  0.000  0.000  0.000  0.000  0.000  0.000  0.000  0.000
 16  0.000  0.000  0.000  0.000  0.000  0.000  0.000  0.000  0.000  0.000
 17  0.000  0.000  0.000  0.000  0.000  0.000  0.000  0.000  0.000  0.000
 18  0.000  0.000  0.000  0.000  0.000  0.000  0.000  0.000  0.000  0.000
 19  0.000  0.000  0.000  0.000  0.000  0.000  0.000  0.000  0.000  0.000
 20  0.000  0.000  0.000  0.000  0.000  0.000  0.000  0.000  0.000  0.000
 21  0.000  0.000  0.000  0.000  0.000  0.000  0.000  0.000  0.000  0.000
 22  0.001  0.002  0.000  0.000  0.000  0.000  0.000  0.000  0.000  0.003
 23  0.000  0.000  0.000  0.000  0.000  0.000  0.000  0.000  0.000  0.000
 24  0.000  0.000  0.000  0.000  0.000  0.000  0.000  0.000  0.000  0.000
 25  0.000  0.000  0.000  0.000  0.000  0.000  0.000  0.000  0.000  0.000
tot  0.001  0.934  0.033  0.021  0.000  0.000  0.000  0.000  0.000  0.989
 
band   8 # energy  -32.44950655 # occ.  1.00000000
 
ion      s     py     pz     px    dxy    dyz    dz2    dxz    dx2    tot
  1  0.000  0.001  0.002  0.012  0.000  0.000  0.000  0.000  0.000  0.015
  2  0.000  0.000  0.000  0.000  0.000  0.000  0.000  0.000  0.000  0.000
  3  0.000  0.148  0.060  0.003  0.000  0.000  0.000  0.000  0.000  0.211
  4  0.000  0.040  0.001  0.008  0.000  0.000  0.000  0.000  0.000  0.049
  5  0.000  0.469  0.086  0.120  0.000  0.000  0.000  0.000  0.000  0.675
  6  0.000  0.001  0.005  0.006  0.000  0.000  0.000  0.000  0.000  0.012
  7  0.000  0.000  0.010  0.002  0.000  0.000  0.000  0.000  0.000  0.012
  8  0.000  0.000  0.004  0.005  0.000  0.000  0.000  0.000  0.000  0.010
  9  0.000  0.000  0.000  0.000  0.000  0.000  0.000  0.000  0.000  0.000
 10  0.000  0.000  0.000  0.000  0.000  0.000  0.000  0.000  0.000  0.000
 11  0.000  0.000  0.000  0.000  0.000  0.000  0.000  0.000  0.000  0.000
 12  0.000  0.000  0.000  0.000  0.000  0.000  0.000  0.000  0.000  0.000
 13  0.000  0.000  0.000  0.000  0.000  0.000  0.000  0.000  0.000  0.000
 14  0.001  0.002  0.000  0.000  0.000  0.000  0.000  0.000  0.000  0.002
 15  0.000  0.000  0.000  0.000  0.000  0.000  0.000  0.000  0.000  0.000
 16  0.000  0.000  0.000  0.000  0.000  0.000  0.000  0.000  0.000  0.000
 17  0.000  0.000  0.000  0.000  0.000  0.000  0.000  0.000  0.000  0.000
 18  0.000  0.000  0.000  0.000  0.000  0.000  0.000  0.000  0.000  0.000
 19  0.000  0.000  0.000  0.000  0.000  0.000  0.000  0.000  0.000  0.000
 20  0.000  0.000  0.000  0.000  0.000  0.000  0.000  0.000  0.000  0.000
 21  0.000  0.000  0.000  0.000  0.000  0.000  0.000  0.000  0.000  0.000
 22  0.000  0.000  0.000  0.000  0.000  0.000  0.000  0.000  0.000  0.000
 23  0.000  0.000  0.000  0.000  0.000  0.000  0.000  0.000  0.000  0.000
 24  0.000  0.001  0.000  0.000  0.000  0.000  0.000  0.000  0.000  0.001
 25  0.000  0.000  0.000  0.000  0.000  0.000  0.000  0.000  0.000  0.000
tot  0.002  0.661  0.170  0.156  0.000  0.000  0.000  0.000  0.000  0.988
 
band   9 # energy  -32.43547665 # occ.  1.00000000
 
ion      s     py     pz     px    dxy    dyz    dz2    dxz    dx2    tot
  1  0.000  0.113  0.160  0.010  0.000  0.000  0.000  0.000  0.000  0.283
  2  0.000  0.000  0.000  0.000  0.000  0.000  0.000  0.000  0.000  0.000
  3  0.000  0.010  0.001  0.003  0.000  0.000  0.000  0.000  0.000  0.014
  4  0.000  0.018  0.020  0.034  0.000  0.000  0.000  0.000  0.000  0.071
  5  0.000  0.026  0.001  0.057  0.000  0.000  0.000  0.000  0.000  0.084
  6  0.000  0.002  0.024  0.029  0.000  0.000  0.000  0.000  0.000  0.055
  7  0.000  0.015  0.441  0.018  0.000  0.000  0.000  0.000  0.000  0.474
  8  0.000  0.000  0.001  0.004  0.000  0.000  0.000  0.000  0.000  0.004
  9  0.000  0.000  0.000  0.000  0.000  0.000  0.000  0.000  0.000  0.000
 10  0.000  0.000  0.000  0.000  0.000  0.000  0.000  0.000  0.000  0.000
 11  0.000  0.000  0.000  0.000  0.000  0.000  0.000  0.000  0.000  0.000
 12  0.000  0.000  0.000  0.000  0.000  0.000  0.000  0.000  0.000  0.000
 13  0.000  0.000  0.000  0.000  0.000  0.000  0.000  0.000  0.000  0.001
 14  0.000  0.000  0.000  0.000  0.000  0.000  0.000  0.000  0.000  0.000
 15  0.000  0.000  0.000  0.000  0.000  0.000  0.000  0.000  0.000  0.000
 16  0.000  0.000  0.000  0.000  0.000  0.000  0.000  0.000  0.000  0.000
 17  0.000  0.000  0.000  0.000  0.000  0.000  0.000  0.000  0.000  0.000
 18  0.000  0.000  0.000  0.000  0.000  0.000  0.000  0.000  0.000  0.000
 19  0.001  0.000  0.000  0.000  0.000  0.000  0.000  0.000  0.000  0.001
 20  0.000  0.000  0.000  0.000  0.000  0.000  0.000  0.000  0.000  0.000
 21  0.000  0.000  0.000  0.000  0.000  0.000  0.000  0.000  0.000  0.000
 22  0.000  0.000  0.000  0.000  0.000  0.000  0.000  0.000  0.000  0.000
 23  0.000  0.000  0.000  0.000  0.000  0.000  0.000  0.000  0.000  0.000
 24  0.000  0.000  0.000  0.000  0.000  0.000  0.000  0.000  0.000  0.000
 25  0.000  0.000  0.000  0.000  0.000  0.000  0.000  0.000  0.000  0.000
tot  0.002  0.183  0.649  0.155  0.000  0.000  0.000  0.000  0.000  0.989
 
band  10 # energy  -32.42796503 # occ.  1.00000000
 
ion      s     py     pz     px    dxy    dyz    dz2    dxz    dx2    tot
  1  0.000  0.017  0.010  0.035  0.000  0.000  0.000  0.000  0.000  0.062
  2  0.000  0.000  0.000  0.000  0.000  0.000  0.000  0.000  0.000  0.000
  3  0.000  0.046  0.039  0.014  0.000  0.000  0.000  0.000  0.000  0.099
  4  0.000  0.005  0.047  0.037  0.000  0.000  0.000  0.000  0.000  0.089
  5  0.000  0.101  0.005  0.537  0.000  0.000  0.000  0.000  0.000  0.643
  6  0.000  0.003  0.008  0.011  0.000  0.000  0.000  0.000  0.000  0.022
  7  0.000  0.018  0.039  0.003  0.000  0.000  0.000  0.000  0.000  0.059
  8  0.000  0.000  0.010  0.003  0.000  0.000  0.000  0.000  0.000  0.012
  9  0.000  0.000  0.000  0.000  0.000  0.000  0.000  0.000  0.000  0.000
 10  0.000  0.000  0.000  0.000  0.000  0.000  0.000  0.000  0.000  0.000
 11  0.000  0.000  0.000  0.000  0.000  0.000  0.000  0.000  0.000  0.000
 12  0.000  0.000  0.000  0.000  0.000  0.000  0.000  0.000  0.000  0.000
 13  0.000  0.000  0.000  0.000  0.000  0.000  0.000  0.000  0.000  0.000
 14  0.000  0.000  0.000  0.000  0.000  0.000  0.000  0.000  0.000  0.000
 15  0.000  0.000  0.000  0.000  0.000  0.000  0.000  0.000  0.000  0.000
 16  0.000  0.000  0.000  0.000  0.000  0.000  0.000  0.000  0.000  0.000
 17  0.001  0.000  0.000  0.001  0.000  0.000  0.000  0.000  0.000  0.001
 18  0.000  0.000  0.000  0.000  0.000  0.000  0.000  0.000  0.000  0.001
 19  0.000  0.000  0.000  0.000  0.000  0.000  0.000  0.000  0.000  0.000
 20  0.000  0.000  0.000  0.000  0.000  0.000  0.000  0.000  0.000  0.000
 21  0.000  0.000  0.000  0.000  0.000  0.000  0.000  0.000  0.000  0.000
 22  0.000  0.000  0.000  0.000  0.000  0.000  0.000  0.000  0.000  0.000
 23  0.000  0.000  0.000  0.000  0.000  0.000  0.000  0.000  0.000  0.000
 24  0.000  0.000  0.000  0.000  0.000  0.000  0.000  0.000  0.000  0.000
 25  0.000  0.000  0.000  0.000  0.000  0.000  0.000  0.000  0.000  0.000
tot  0.002  0.190  0.157  0.640  0.000  0.000  0.000  0.000  0.000  0.989
 
band  11 # energy  -32.42124731 # occ.  1.00000000
 
ion      s     py     pz     px    dxy    dyz    dz2    dxz    dx2    tot
  1  0.000  0.090  0.076  0.008  0.000  0.000  0.000  0.000  0.000  0.173
  2  0.000  0.000  0.000  0.000  0.000  0.000  0.000  0.000  0.000  0.000
  3  0.000  0.001  0.001  0.000  0.000  0.000  0.000  0.000  0.000  0.002
  4  0.000  0.001  0.007  0.014  0.000  0.000  0.000  0.000  0.000  0.022
  5  0.000  0.000  0.000  0.005  0.000  0.000  0.000  0.000  0.000  0.005
  6  0.000  0.001  0.001  0.000  0.000  0.000  0.000  0.000  0.000  0.002
  7  0.000  0.770  0.010  0.000  0.000  0.000  0.000  0.000  0.000  0.780
  8  0.000  0.000  0.002  0.001  0.000  0.000  0.000  0.000  0.000  0.002
  9  0.000  0.000  0.000  0.000  0.000  0.000  0.000  0.000  0.000  0.000
 10  0.000  0.000  0.000  0.000  0.000  0.000  0.000  0.000  0.000  0.000
 11  0.000  0.000  0.000  0.000  0.000  0.000  0.000  0.000  0.000  0.000
 12  0.000  0.000  0.000  0.000  0.000  0.000  0.000  0.000  0.000  0.000
 13  0.000  0.000  0.000  0.000  0.000  0.000  0.000  0.000  0.000  0.000
 14  0.000  0.000  0.000  0.000  0.000  0.000  0.000  0.000  0.000  0.000
 15  0.000  0.000  0.000  0.000  0.000  0.000  0.000  0.000  0.000  0.000
 16  0.000  0.000  0.000  0.000  0.000  0.000  0.000  0.000  0.000  0.000
 17  0.000  0.000  0.000  0.000  0.000  0.000  0.000  0.000  0.000  0.000
 18  0.000  0.000  0.000  0.000  0.000  0.000  0.000  0.000  0.000  0.000
 19  0.000  0.000  0.000  0.000  0.000  0.000  0.000  0.000  0.000  0.000
 20  0.000  0.000  0.000  0.000  0.000  0.000  0.000  0.000  0.000  0.000
 21  0.000  0.000  0.000  0.000  0.000  0.000  0.000  0.000  0.000  0.000
 22  0.000  0.000  0.000  0.000  0.000  0.000  0.000  0.000  0.000  0.000
 23  0.000  0.002  0.000  0.000  0.000  0.000  0.000  0.000  0.000  0.003
 24  0.000  0.000  0.000  0.000  0.000  0.000  0.000  0.000  0.000  0.000
 25  0.000  0.000  0.000  0.000  0.000  0.000  0.000  0.000  0.000  0.000
tot  0.001  0.865  0.096  0.028  0.000  0.000  0.000  0.000  0.000  0.990
 
band  12 # energy  -32.39610501 # occ.  1.00000000
 
ion      s     py     pz     px    dxy    dyz    dz2    dxz    dx2    tot
  1  0.000  0.001  0.003  0.001  0.000  0.000  0.000  0.000  0.000  0.005
  2  0.000  0.000  0.000  0.000  0.000  0.000  0.000  0.000  0.000  0.000
  3  0.000  0.003  0.093  0.149  0.000  0.000  0.000  0.000  0.000  0.244
  4  0.000  0.007  0.022  0.025  0.000  0.000  0.000  0.000  0.000  0.054
  5  0.000  0.078  0.116  0.059  0.000  0.000  0.000  0.000  0.000  0.252
  6  0.000  0.001  0.082  0.053  0.000  0.000  0.000  0.000  0.000  0.137
  7  0.000  0.001  0.011  0.277  0.000  0.000  0.000  0.000  0.000  0.289
  8  0.000  0.000  0.000  0.002  0.000  0.000  0.000  0.000  0.000  0.002
  9  0.000  0.000  0.000  0.000  0.000  0.000  0.000  0.000  0.000  0.000
 10  0.000  0.000  0.000  0.000  0.000  0.000  0.000  0.000  0.000  0.000
 11  0.001  0.000  0.000  0.000  0.000  0.000  0.000  0.000  0.000  0.001
 12  0.002  0.000  0.000  0.000  0.000  0.000  0.000  0.000  0.000  0.002
 13  0.000  0.000  0.000  0.000  0.000  0.000  0.000  0.000  0.000  0.000
 14  0.000  0.000  0.000  0.000  0.000  0.000  0.000  0.000  0.000  0.000
 15  0.000  0.000  0.000  0.000  0.000  0.000  0.000  0.000  0.000  0.000
 16  0.000  0.000  0.000  0.000  0.000  0.000  0.000  0.000  0.000  0.000
 17  0.000  0.000  0.000  0.000  0.000  0.000  0.000  0.000  0.000  0.000
 18  0.000  0.000  0.000  0.000  0.000  0.000  0.000  0.000  0.000  0.000
 19  0.000  0.000  0.000  0.000  0.000  0.000  0.000  0.000  0.000  0.000
 20  0.001  0.000  0.000  0.000  0.000  0.000  0.000  0.000  0.000  0.001
 21  0.000  0.000  0.000  0.000  0.000  0.000  0.000  0.000  0.000  0.000
 22  0.000  0.000  0.000  0.000  0.000  0.000  0.000  0.000  0.000  0.000
 23  0.000  0.000  0.000  0.000  0.000  0.000  0.000  0.000  0.000  0.000
 24  0.000  0.000  0.000  0.000  0.000  0.000  0.000  0.000  0.000  0.000
 25  0.000  0.000  0.000  0.000  0.000  0.000  0.000  0.000  0.000  0.000
tot  0.004  0.090  0.328  0.566  0.000  0.000  0.000  0.000  0.000  0.988
 
band  13 # energy  -32.38606481 # occ.  1.00000000
 
ion      s     py     pz     px    dxy    dyz    dz2    dxz    dx2    tot
  1  0.000  0.002  0.003  0.001  0.000  0.000  0.000  0.000  0.000  0.006
  2  0.000  0.000  0.001  0.000  0.000  0.000  0.000  0.000  0.000  0.001
  3  0.000  0.002  0.154  0.023  0.000  0.000  0.000  0.000  0.000  0.179
  4  0.000  0.001  0.016  0.012  0.000  0.000  0.000  0.000  0.000  0.029
  5  0.000  0.081  0.116  0.022  0.000  0.000  0.000  0.000  0.000  0.219
  6  0.000  0.001  0.003  0.078  0.000  0.000  0.000  0.000  0.000  0.081
  7  0.000  0.000  0.027  0.439  0.000  0.000  0.000  0.000  0.000  0.466
  8  0.000  0.000  0.002  0.002  0.000  0.000  0.000  0.000  0.000  0.004
  9  0.000  0.000  0.000  0.000  0.000  0.000  0.000  0.000  0.000  0.000
 10  0.000  0.000  0.000  0.000  0.000  0.000  0.000  0.000  0.000  0.000
 11  0.001  0.000  0.000  0.000  0.000  0.000  0.000  0.000  0.000  0.001
 12  0.001  0.000  0.000  0.000  0.000  0.000  0.000  0.000  0.000  0.001
 13  0.000  0.000  0.000  0.000  0.000  0.000  0.000  0.000  0.000  0.000
 14  0.000  0.000  0.000  0.000  0.000  0.000  0.000  0.000  0.000  0.000
 15  0.000  0.000  0.000  0.000  0.000  0.000  0.000  0.000  0.000  0.000
 16  0.000  0.000  0.000  0.000  0.000  0.000  0.000  0.000  0.000  0.000
 17  0.000  0.000  0.000  0.000  0.000  0.000  0.000  0.000  0.000  0.000
 18  0.000  0.000  0.000  0.000  0.000  0.000  0.000  0.000  0.000  0.000
 19  0.000  0.000  0.000  0.000  0.000  0.000  0.000  0.000  0.000  0.000
 20  0.001  0.000  0.000  0.000  0.000  0.000  0.000  0.000  0.000  0.001
 21  0.000  0.000  0.000  0.000  0.000  0.000  0.000  0.000  0.000  0.000
 22  0.000  0.000  0.000  0.000  0.000  0.000  0.000  0.000  0.000  0.000
 23  0.000  0.000  0.000  0.000  0.000  0.000  0.000  0.000  0.000  0.000
 24  0.000  0.000  0.000  0.000  0.000  0.000  0.000  0.000  0.000  0.000
 25  0.000  0.000  0.000  0.000  0.000  0.000  0.000  0.000  0.000  0.000
tot  0.003  0.087  0.322  0.576  0.000  0.000  0.000  0.000  0.000  0.989
 
band  14 # energy  -32.35998136 # occ.  1.00000000
 
ion      s     py     pz     px    dxy    dyz    dz2    dxz    dx2    tot
  1  0.000  0.000  0.000  0.000  0.000  0.000  0.000  0.000  0.000  0.000
  2  0.000  0.000  0.000  0.000  0.000  0.000  0.000  0.000  0.000  0.000
  3  0.000  0.745  0.001  0.002  0.000  0.000  0.000  0.000  0.000  0.748
  4  0.000  0.000  0.003  0.005  0.000  0.000  0.000  0.000  0.000  0.009
  5  0.000  0.141  0.065  0.004  0.000  0.000  0.000  0.000  0.000  0.210
  6  0.000  0.012  0.001  0.001  0.000  0.000  0.000  0.000  0.000  0.014
  7  0.000  0.000  0.000  0.003  0.000  0.000  0.000  0.000  0.000  0.003
  8  0.000  0.000  0.002  0.002  0.000  0.000  0.000  0.000  0.000  0.004
  9  0.000  0.000  0.000  0.000  0.000  0.000  0.000  0.000  0.000  0.000
 10  0.000  0.000  0.000  0.000  0.000  0.000  0.000  0.000  0.000  0.000
 11  0.000  0.000  0.000  0.000  0.000  0.000  0.000  0.000  0.000  0.000
 12  0.000  0.000  0.000  0.000  0.000  0.000  0.000  0.000  0.000  0.000
 13  0.000  0.000  0.000  0.000  0.000  0.000  0.000  0.000  0.000  0.000
 14  0.000  0.000  0.000  0.000  0.000  0.000  0.000  0.000  0.000  0.000
 15  0.000  0.000  0.000  0.000  0.000  0.000  0.000  0.000  0.000  0.000
 16  0.000  0.000  0.000  0.000  0.000  0.000  0.000  0.000  0.000  0.000
 17  0.000  0.000  0.000  0.000  0.000  0.000  0.000  0.000  0.000  0.000
 18  0.000  0.000  0.000  0.000  0.000  0.000  0.000  0.000  0.000  0.000
 19  0.000  0.000  0.000  0.000  0.000  0.000  0.000  0.000  0.000  0.000
 20  0.000  0.000  0.000  0.000  0.000  0.000  0.000  0.000  0.000  0.000
 21  0.000  0.000  0.000  0.000  0.000  0.000  0.000  0.000  0.000  0.000
 22  0.000  0.000  0.000  0.000  0.000  0.000  0.000  0.000  0.000  0.000
 23  0.000  0.000  0.000  0.000  0.000  0.000  0.000  0.000  0.000  0.000
 24  0.000  0.002  0.000  0.000  0.000  0.000  0.000  0.000  0.000  0.002
 25  0.000  0.000  0.000  0.000  0.000  0.000  0.000  0.000  0.000  0.000
tot  0.000  0.900  0.072  0.018  0.000  0.000  0.000  0.000  0.000  0.990
 
band  15 # energy  -32.35087631 # occ.  1.00000000
 
ion      s     py     pz     px    dxy    dyz    dz2    dxz    dx2    tot
  1  0.000  0.000  0.001  0.000  0.000  0.000  0.000  0.000  0.000  0.001
  2  0.000  0.000  0.000  0.000  0.000  0.000  0.000  0.000  0.000  0.001
  3  0.000  0.003  0.091  0.633  0.000  0.000  0.000  0.000  0.000  0.727
  4  0.000  0.001  0.002  0.002  0.000  0.000  0.000  0.000  0.000  0.005
  5  0.000  0.009  0.025  0.002  0.000  0.000  0.000  0.000  0.000  0.036
  6  0.000  0.000  0.024  0.037  0.000  0.000  0.000  0.000  0.000  0.061
  7  0.000  0.000  0.005  0.146  0.000  0.000  0.000  0.000  0.000  0.151
  8  0.000  0.000  0.001  0.002  0.000  0.000  0.000  0.000  0.000  0.003
  9  0.000  0.000  0.000  0.000  0.000  0.000  0.000  0.000  0.000  0.000
 10  0.000  0.000  0.000  0.000  0.000  0.000  0.000  0.000  0.000  0.000
 11  0.001  0.000  0.000  0.001  0.000  0.000  0.000  0.000  0.000  0.002
 12  0.000  0.000  0.000  0.001  0.000  0.000  0.000  0.000  0.000  0.001
 13  0.000  0.000  0.000  0.000  0.000  0.000  0.000  0.000  0.000  0.000