PROCAR lm decomposed
# of k-points:  2         # of bands: 4         # of ions:  22

 k-point    1 :    0.50000000 0.25000000 0.75000000     weight = 0.00806452

band   1 # energy  -13.17934476 # occ.  1.00000000
 
ion      s     py     pz     px    dxy    dyz    dz2    dxz    dx2    tot
  1  0.024  0.001  0.001  0.007  0.000  0.000  0.000  0.000  0.000  0.034
  2  0.024  0.001  0.001  0.007  0.000  0.000  0.000  0.000  0.000  0.035
  3  0.024  0.007  0.002  0.000  0.000  0.000  0.000  0.000  0.001  0.035
  4  0.024  0.000  0.009  0.000  0.000  0.000  0.001  0.000  0.000  0.034
  5  0.003  0.001  0.002  0.001  0.000  0.000  0.000  0.000  0.000  0.007
  6  0.003  0.001  0.002  0.001  0.000  0.000  0.000  0.000  0.000  0.007
  7  0.003  0.000  0.001  0.002  0.000  0.000  0.001  0.000  0.000  0.007
  8  0.003  0.001  0.000  0.002  0.000  0.000  0.000  0.000  0.000  0.007
  9  0.019  0.000  0.000  0.000  0.000  0.000  0.000  0.000  0.000  0.019
 10  0.019  0.000  0.000  0.000  0.000  0.000  0.000  0.000  0.000  0.019
 11  0.019  0.000  0.000  0.000  0.000  0.000  0.000  0.000  0.000  0.019
 12  0.019  0.000  0.000  0.000  0.000  0.000  0.000  0.000  0.000  0.019
 13  0.019  0.000  0.000  0.000  0.000  0.000  0.000  0.000  0.000  0.019
 14  0.019  0.000  0.000  0.000  0.000  0.000  0.000  0.000  0.000  0.019
 15  0.051  0.000  0.000  0.000  0.000  0.000  0.000  0.000  0.000  0.051
 16  0.005  0.000  0.000  0.000  0.000  0.000  0.000  0.000  0.000  0.005
 17  0.019  0.000  0.000  0.000  0.000  0.000  0.000  0.000  0.000  0.019
 18  0.019  0.000  0.000  0.000  0.000  0.000  0.000  0.000  0.000  0.019
 19  0.005  0.000  0.000  0.000  0.000  0.000  0.000  0.000  0.000  0.005
 20  0.051  0.000  0.000  0.000  0.000  0.000  0.000  0.000  0.000  0.051
 21  0.034  0.000  0.000  0.000  0.000  0.000  0.000  0.000  0.000  0.034
 22  0.372  0.000  0.000  0.000  0.000  0.000  0.000  0.000  0.000  0.372
tot  0.776  0.014  0.018  0.021  0.002  0.001  0.002  0.001  0.002  0.836
  1 -0.002  0.000  0.000  0.000  0.000  0.000  0.000  0.000  0.000 -0.001
  2  0.002  0.000  0.000  0.000  0.000  0.000  0.000  0.000  0.000  0.001
  3 -0.013  0.004  0.001  0.000  0.000  0.000  0.000  0.000  0.000 -0.009
  4  0.013  0.000 -0.005  0.000  0.000  0.000  0.001  0.000  0.000  0.009
  5  0.000  0.001 -0.001  0.000  0.000  0.000  0.000  0.000  0.000  0.000
  6  0.000  0.001 -0.001  0.000  0.000  0.000  0.000  0.000  0.000  0.000
  7  0.002  0.000 -0.001  0.001  0.000  0.000  0.000  0.000  0.000  0.002
  8 -0.002  0.001  0.000 -0.001  0.000  0.000  0.000  0.000  0.000 -0.002
  9 -0.009  0.000  0.000  0.000  0.000  0.000  0.000  0.000  0.000 -0.009
 10 -0.008  0.000  0.000  0.000  0.000  0.000  0.000  0.000  0.000 -0.008
 11  0.009  0.000  0.000  0.000  0.000  0.000  0.000  0.000  0.000  0.009
 12  0.008  0.000  0.000  0.000  0.000  0.000  0.000  0.000  0.000  0.008
 13  0.006  0.000  0.000  0.000  0.000  0.000  0.000  0.000  0.000  0.006
 14  0.007  0.000  0.000  0.000  0.000  0.000  0.000  0.000  0.000  0.007
 15  0.000  0.000  0.000  0.000  0.000  0.000  0.000  0.000  0.000  0.000
 16  0.000  0.000  0.000  0.000  0.000  0.000  0.000  0.000  0.000  0.000
 17 -0.006  0.000  0.000  0.000  0.000  0.000  0.000  0.000  0.000 -0.006
 18 -0.007  0.000  0.000  0.000  0.000  0.000  0.000  0.000  0.000 -0.007
 19  0.000  0.000  0.000  0.000  0.000  0.000  0.000  0.000  0.000  0.000
 20  0.000  0.000  0.000  0.000  0.000  0.000  0.000  0.000  0.000  0.000
 21 -0.001  0.000  0.000  0.000  0.000  0.000  0.000  0.000  0.000 -0.001
 22 -0.001  0.000  0.000  0.000  0.000  0.000  0.000  0.000  0.000 -0.001
tot -0.003  0.006 -0.006  0.000  0.000  0.000  0.001  0.000 -0.001 -0.003
  1 -0.009 -0.001 -0.001 -0.007  0.000  0.000  0.000  0.000  0.000 -0.018
  2 -0.024 -0.001  0.000 -0.003  0.000  0.000  0.000  0.000  0.000 -0.029
  3 -0.017 -0.005 -0.001  0.000  0.000  0.000  0.000  0.000  0.000 -0.024
  4 -0.015  0.000 -0.006  0.000  0.000  0.000 -0.001  0.000  0.000 -0.023
  5 -0.003 -0.001 -0.002  0.000  0.000  0.000  0.000  0.000  0.000 -0.006
  6 -0.001 -0.001 -0.001 -0.001  0.000  0.000  0.000  0.000  0.000 -0.004
  7 -0.002  0.000 -0.001 -0.001  0.000  0.000  0.000  0.000  0.000 -0.005
  8 -0.002 -0.001  0.000 -0.002  0.000  0.000  0.000  0.000  0.000 -0.005
  9 -0.010  0.000  0.000  0.000  0.000  0.000  0.000  0.000  0.000 -0.010
 10 -0.009  0.000  0.000  0.000  0.000  0.000  0.000  0.000  0.000 -0.009
 11 -0.016  0.000  0.000  0.000  0.000  0.000  0.000  0.000  0.000 -0.016
 12 -0.017  0.000  0.000  0.000  0.000  0.000  0.000  0.000  0.000 -0.017
 13 -0.008  0.000  0.000  0.000  0.000  0.000  0.000  0.000  0.000 -0.008
 14 -0.008  0.000  0.000  0.000  0.000  0.000  0.000  0.000  0.000 -0.008
 15 -0.042  0.000  0.000  0.000  0.000  0.000  0.000  0.000  0.000 -0.042
 16  0.004  0.000  0.000  0.000  0.000  0.000  0.000  0.000  0.000  0.004
 17 -0.018  0.000  0.000  0.000  0.000  0.000  0.000  0.000  0.000 -0.018
 18 -0.017  0.000  0.000  0.000  0.000  0.000  0.000  0.000  0.000 -0.017
 19  0.004  0.000  0.000  0.000  0.000  0.000  0.000  0.000  0.000  0.004
 20 -0.042  0.000  0.000  0.000  0.000  0.000  0.000  0.000  0.000 -0.042
 21  0.028  0.000  0.000  0.000  0.000  0.000  0.000  0.000  0.000  0.028
 22 -0.303  0.000  0.000  0.000  0.000  0.000  0.000  0.000  0.000 -0.303
tot -0.527 -0.009 -0.012 -0.014 -0.001 -0.001 -0.002 -0.001 -0.001 -0.568
  1 -0.022  0.000  0.000  0.000  0.000  0.000  0.000  0.000  0.000 -0.024
  2 -0.001 -0.001 -0.001 -0.007  0.000  0.000  0.000  0.000  0.000 -0.009
  3 -0.010 -0.004 -0.001  0.000  0.000  0.000  0.000  0.000  0.000 -0.016
  4 -0.013  0.000 -0.004  0.000  0.000  0.000 -0.001  0.000  0.000 -0.017
  5  0.000 -0.001  0.000 -0.001  0.000  0.000  0.000  0.000  0.000 -0.002
  6 -0.003 -0.001 -0.001  0.000  0.000  0.000  0.000  0.000  0.000 -0.005
  7 -0.002  0.000 -0.001 -0.001  0.000  0.000  0.000  0.000  0.000 -0.004
  8 -0.001 -0.001  0.000 -0.001  0.000  0.000  0.000  0.000  0.000 -0.003
  9 -0.014  0.000  0.000  0.000  0.000  0.000  0.000  0.000  0.000 -0.014
 10 -0.015  0.000  0.000  0.000  0.000  0.000  0.000  0.000  0.000 -0.015
 11 -0.004  0.000  0.000  0.000  0.000  0.000  0.000  0.000  0.000 -0.004
 12 -0.003  0.000  0.000  0.000  0.000  0.000  0.000  0.000  0.000 -0.003
 13 -0.016  0.000  0.000  0.000  0.000  0.000  0.000  0.000  0.000 -0.016
 14 -0.015  0.000  0.000  0.000  0.000  0.000  0.000  0.000  0.000 -0.015
 15 -0.030  0.000  0.000  0.000  0.000  0.000  0.000  0.000  0.000 -0.030
 16  0.003  0.000  0.000  0.000  0.000  0.000  0.000  0.000  0.000  0.003
 17 -0.002  0.000  0.000  0.000  0.000  0.000  0.000  0.000  0.000 -0.002
 18 -0.003  0.000  0.000  0.000  0.000  0.000  0.000  0.000  0.000 -0.003
 19  0.003  0.000  0.000  0.000  0.000  0.000  0.000  0.000  0.000  0.003
 20 -0.030  0.000  0.000  0.000  0.000  0.000  0.000  0.000  0.000 -0.030
 21  0.020  0.000  0.000  0.000  0.000  0.000  0.000  0.000  0.000  0.020
 22 -0.214  0.000  0.000  0.000  0.000  0.000  0.000  0.000  0.000 -0.214
tot -0.372 -0.008 -0.008 -0.010 -0.001  0.000 -0.001  0.000 -0.001 -0.401
 
band   2 # energy  -13.17934476 # occ.  1.00000000
 
ion      s     py     pz     px    dxy    dyz    dz2    dxz    dx2    tot
  1  0.024  0.001  0.001  0.007  0.000  0.000  0.000  0.000  0.000  0.034
  2  0.024  0.001  0.001  0.007  0.000  0.000  0.000  0.000  0.000  0.035
  3  0.024  0.007  0.002  0.000  0.000  0.000  0.000  0.000  0.001  0.035
  4  0.024  0.000  0.009  0.000  0.000  0.000  0.001  0.000  0.000  0.034
  5  0.003  0.001  0.002  0.001  0.000  0.000  0.000  0.000  0.000  0.007
  6  0.003  0.001  0.002  0.001  0.000  0.000  0.000  0.000  0.000  0.007
  7  0.003  0.000  0.001  0.002  0.000  0.000  0.001  0.000  0.000  0.007
  8  0.003  0.001  0.000  0.002  0.000  0.000  0.000  0.000  0.000  0.007
  9  0.019  0.000  0.000  0.000  0.000  0.000  0.000  0.000  0.000  0.019
 10  0.019  0.000  0.000  0.000  0.000  0.000  0.000  0.000  0.000  0.019
 11  0.019  0.000  0.000  0.000  0.000  0.000  0.000  0.000  0.000  0.019
 12  0.019  0.000  0.000  0.000  0.000  0.000  0.000  0.000  0.000  0.019
 13  0.019  0.000  0.000  0.000  0.000  0.000  0.000  0.000  0.000  0.019
 14  0.019  0.000  0.000  0.000  0.000  0.000  0.000  0.000  0.000  0.019
 15  0.005  0.000  0.000  0.000  0.000  0.000  0.000  0.000  0.000  0.005
 16  0.051  0.000  0.000  0.000  0.000  0.000  0.000  0.000  0.000  0.051
 17  0.019  0.000  0.000  0.000  0.000  0.000  0.000  0.000  0.000  0.019
 18  0.019  0.000  0.000  0.000  0.000  0.000  0.000  0.000  0.000  0.019
 19  0.051  0.000  0.000  0.000  0.000  0.000  0.000  0.000  0.000  0.051
 20  0.005  0.000  0.000  0.000  0.000  0.000  0.000  0.000  0.000  0.005
 21  0.372  0.000  0.000  0.000  0.000  0.000  0.000  0.000  0.000  0.372
 22  0.034  0.000  0.000  0.000  0.000  0.000  0.000  0.000  0.000  0.034
tot  0.776  0.014  0.018  0.021  0.002  0.001  0.002  0.001  0.002  0.836
  1  0.002  0.000  0.000  0.000  0.000  0.000  0.000  0.000  0.000  0.001
  2 -0.002  0.000  0.000  0.000  0.000  0.000  0.000  0.000  0.000 -0.001
  3  0.013 -0.004 -0.001  0.000  0.000  0.000  0.000  0.000  0.000  0.009
  4 -0.013  0.000  0.005  0.000  0.000  0.000 -0.001  0.000  0.000 -0.009
  5  0.000 -0.001  0.001  0.000  0.000  0.000  0.000  0.000  0.000  0.000
  6  0.000 -0.001  0.001  0.000  0.000  0.000  0.000  0.000  0.000  0.000
  7 -0.002  0.000  0.001 -0.001  0.000  0.000  0.000  0.000  0.000 -0.002
  8  0.002 -0.001  0.000  0.001  0.000  0.000  0.000  0.000  0.000  0.002
  9  0.008  0.000  0.000  0.000  0.000  0.000  0.000  0.000  0.000  0.008
 10  0.009  0.000  0.000  0.000  0.000  0.000  0.000  0.000  0.000  0.009
 11 -0.008  0.000  0.000  0.000  0.000  0.000  0.000  0.000  0.000 -0.008
 12 -0.009  0.000  0.000  0.000  0.000  0.000  0.000  0.000  0.000 -0.009
 13 -0.007  0.000  0.000  0.000  0.000  0.000  0.000  0.000  0.000 -0.007
 14 -0.006  0.000  0.000  0.000  0.000  0.000  0.000  0.000  0.000 -0.006
 15  0.000  0.000  0.000  0.000  0.000  0.000  0.000  0.000  0.000  0.000
 16  0.000  0.000  0.000  0.000  0.000  0.000  0.000  0.000  0.000  0.000
 17  0.007  0.000  0.000  0.000  0.000  0.000  0.000  0.000  0.000  0.007
 18  0.006  0.000  0.000  0.000  0.000  0.000  0.000  0.000  0.000  0.006
 19  0.000  0.000  0.000  0.000  0.000  0.000  0.000  0.000  0.000  0.000
 20  0.000  0.000  0.000  0.000  0.000  0.000  0.000  0.000  0.000  0.000
 21  0.001  0.000  0.000  0.000  0.000  0.000  0.000  0.000  0.000  0.001
 22  0.001  0.000  0.000  0.000  0.000  0.000  0.000  0.000  0.000  0.001
tot  0.003 -0.006  0.006  0.000  0.000  0.000 -0.001  0.000  0.001  0.003
  1  0.009  0.001  0.001  0.007  0.000  0.000  0.000  0.000  0.000  0.018
  2  0.024  0.001  0.000  0.003  0.000  0.000  0.000  0.000  0.000  0.029
  3  0.017  0.005  0.001  0.000  0.000  0.000  0.000  0.000  0.000  0.024
  4  0.015  0.000  0.006  0.000  0.000  0.000  0.001  0.000  0.000  0.023
  5  0.003  0.001  0.002  0.000  0.000  0.000  0.000  0.000  0.000  0.006
  6  0.001  0.001  0.001  0.001  0.000  0.000  0.000  0.000  0.000  0.004
  7  0.002  0.000  0.001  0.001  0.000  0.000  0.000  0.000  0.000  0.005
  8  0.002  0.001  0.000  0.002  0.000  0.000  0.000  0.000  0.000  0.005
  9  0.009  0.000  0.000  0.000  0.000  0.000  0.000  0.000  0.000  0.009
 10  0.010  0.000  0.000  0.000  0.000  0.000  0.000  0.000  0.000  0.010
 11  0.017  0.000  0.000  0.000  0.000  0.000  0.000  0.000  0.000  0.017
 12  0.016  0.000  0.000  0.000  0.000  0.000  0.000  0.000  0.000  0.016
 13  0.008  0.000  0.000  0.000  0.000  0.000  0.000  0.000  0.000  0.008
 14  0.008  0.000  0.000  0.000  0.000  0.000  0.000  0.000  0.000  0.008
 15 -0.004  0.000  0.000  0.000  0.000  0.000  0.000  0.000  0.000 -0.004
 16  0.042  0.000  0.000  0.000  0.000  0.000  0.000  0.000  0.000  0.042
 17  0.017  0.000  0.000  0.000  0.000  0.000  0.000  0.000  0.000  0.017
 18  0.018  0.000  0.000  0.000  0.000  0.000  0.000  0.000  0.000  0.018
 19  0.042  0.000  0.000  0.000  0.000  0.000  0.000  0.000  0.000  0.042
 20 -0.004  0.000  0.000  0.000  0.000  0.000  0.000  0.000  0.000 -0.004
 21  0.303  0.000  0.000  0.000  0.000  0.000  0.000  0.000  0.000  0.303
 22 -0.028  0.000  0.000  0.000  0.000  0.000  0.000  0.000  0.000 -0.028
tot  0.527  0.009  0.012  0.014  0.001  0.001  0.002  0.001  0.001  0.568
  1  0.022  0.000  0.000  0.000  0.000  0.000  0.000  0.000  0.000  0.024
  2  0.001  0.001  0.001  0.007  0.000  0.000  0.000  0.000  0.000  0.009
  3  0.010  0.004  0.001  0.000  0.000  0.000  0.000  0.000  0.000  0.016
  4  0.013  0.000  0.004  0.000  0.000  0.000  0.001  0.000  0.000  0.017
  5  0.000  0.001  0.000  0.001  0.000  0.000  0.000  0.000  0.000  0.002
  6  0.003  0.001  0.001  0.000  0.000  0.000  0.000  0.000  0.000  0.005
  7  0.002  0.000  0.001  0.001  0.000  0.000  0.000  0.000  0.000  0.004
  8  0.001  0.001  0.000  0.001  0.000  0.000  0.000  0.000  0.000  0.003
  9  0.015  0.000  0.000  0.000  0.000  0.000  0.000  0.000  0.000  0.015
 10  0.014  0.000  0.000  0.000  0.000  0.000  0.000  0.000  0.000  0.014
 11  0.003  0.000  0.000  0.000  0.000  0.000  0.000  0.000  0.000  0.003
 12  0.004  0.000  0.000  0.000  0.000  0.000  0.000  0.000  0.000  0.004
 13  0.015  0.000  0.000  0.000  0.000  0.000  0.000  0.000  0.000  0.015
 14  0.016  0.000  0.000  0.000  0.000  0.000  0.000  0.000  0.000  0.016
 15 -0.003  0.000  0.000  0.000  0.000  0.000  0.000  0.000  0.000 -0.003
 16  0.030  0.000  0.000  0.000  0.000  0.000  0.000  0.000  0.000  0.030
 17  0.003  0.000  0.000  0.000  0.000  0.000  0.000  0.000  0.000  0.003
 18  0.002  0.000  0.000  0.000  0.000  0.000  0.000  0.000  0.000  0.002
 19  0.030  0.000  0.000  0.000  0.000  0.000  0.000  0.000  0.000  0.030
 20 -0.003  0.000  0.000  0.000  0.000  0.000  0.000  0.000  0.000 -0.003
 21  0.214  0.000  0.000  0.000  0.000  0.000  0.000  0.000  0.000  0.214
 22 -0.020  0.000  0.000  0.000  0.000  0.000  0.000  0.000  0.000 -0.020
tot  0.372  0.008  0.008  0.010  0.001  0.000  0.001  0.000  0.001  0.401
 
band   3 # energy  -13.16936722 # occ.  1.00000000
 
ion      s     py     pz     px    dxy    dyz    dz2    dxz    dx2    tot
  1  0.024  0.001  0.001  0.007  0.001  0.000  0.000  0.000  0.000  0.035
  2  0.024  0.001  0.001  0.007  0.001  0.000  0.000  0.000  0.000  0.035
  3  0.024  0.007  0.002  0.000  0.000  0.000  0.000  0.000  0.001  0.035
  4  0.024  0.000  0.009  0.000  0.000  0.000  0.001  0.000  0.000  0.035
  5  0.003  0.001  0.002  0.000  0.000  0.000  0.000  0.000  0.000  0.007
  6  0.003  0.001  0.002  0.000  0.000  0.000  0.000  0.000  0.000  0.007
  7  0.003  0.000  0.001  0.002  0.000  0.000  0.000  0.000  0.000  0.007
  8  0.003  0.001  0.000  0.002  0.000  0.000  0.000  0.000  0.000  0.007
  9  0.020  0.000  0.000  0.000  0.000  0.000  0.000  0.000  0.000  0.020
 10  0.018  0.000  0.000  0.000  0.000  0.000  0.000  0.000  0.000  0.018
 11  0.020  0.000  0.000  0.000  0.000  0.000  0.000  0.000  0.000  0.020
 12  0.018  0.000  0.000  0.000  0.000  0.000  0.000  0.000  0.000  0.018
 13  0.019  0.000  0.000  0.000  0.000  0.000  0.000  0.000  0.000  0.019
 14  0.019  0.000  0.000  0.000  0.000  0.000  0.000  0.000  0.000  0.019
 15  0.001  0.000  0.000  0.000  0.000  0.000  0.000  0.000  0.000  0.002
 16  0.049  0.000  0.000  0.000  0.000  0.000  0.000  0.000  0.000  0.049
 17  0.019  0.000  0.000  0.000  0.000  0.000  0.000  0.000  0.000  0.019
 18  0.018  0.000  0.000  0.000  0.000  0.000  0.000  0.000  0.000  0.018
 19  0.050  0.000  0.000  0.000  0.000  0.000  0.000  0.000  0.000  0.050
 20  0.000  0.000  0.000  0.000  0.000  0.000  0.000  0.000  0.000  0.000
 21  0.416  0.000  0.000  0.000  0.000  0.000  0.000  0.000  0.000  0.416
 22  0.002  0.000  0.000  0.000  0.000  0.000  0.000  0.000  0.000  0.002
tot  0.776  0.014  0.017  0.020  0.002  0.001  0.002  0.001  0.001  0.835
  1 -0.004  0.000  0.000  0.001  0.000  0.000  0.000  0.000  0.000 -0.003
  2  0.004  0.000  0.000 -0.001  0.000  0.000  0.000  0.000  0.000  0.003
  3  0.002 -0.001  0.000  0.000  0.000  0.000  0.000  0.000  0.000  0.001
  4 -0.002  0.000  0.001  0.000  0.000  0.000  0.000  0.000  0.000 -0.001
  5 -0.001  0.000  0.000  0.000  0.000  0.000  0.000  0.000  0.000  0.000
  6  0.001  0.000  0.000  0.000  0.000  0.000  0.000  0.000  0.000  0.000
  7  0.000  0.000  0.000  0.000  0.000  0.000  0.000  0.000  0.000  0.000
  8  0.000  0.000  0.000  0.000  0.000  0.000  0.000  0.000  0.000  0.000
  9  0.003  0.000  0.000  0.000  0.000  0.000  0.000  0.000  0.000  0.003
 10 -0.005  0.000  0.000  0.000  0.000  0.000  0.000  0.000  0.000 -0.005
 11 -0.003  0.000  0.000  0.000  0.000  0.000  0.000  0.000  0.000 -0.003
 12  0.005  0.000  0.000  0.000  0.000  0.000  0.000  0.000  0.000  0.005
 13  0.001  0.000  0.000  0.000  0.000  0.000  0.000  0.000  0.000  0.001
 14 -0.007  0.000  0.000  0.000  0.000  0.000  0.000  0.000  0.000 -0.007
 15  0.000  0.000  0.000  0.000  0.000  0.000  0.000  0.000  0.000  0.000
 16  0.000  0.000  0.000  0.000  0.000  0.000  0.000  0.000  0.000  0.000
 17 -0.001  0.000  0.000  0.000  0.000  0.000  0.000  0.000  0.000 -0.001
 18  0.007  0.000  0.000  0.000  0.000  0.000  0.000  0.000  0.000  0.007
 19  0.000  0.000  0.000  0.000  0.000  0.000  0.000  0.000  0.000  0.000
 20  0.000  0.000  0.000  0.000  0.000  0.000  0.000  0.000  0.000  0.000
 21  0.000  0.000  0.000  0.000  0.000  0.000  0.000  0.000  0.000  0.000
 22  0.000  0.000  0.000  0.000  0.000  0.000  0.000  0.000  0.000  0.000
tot  0.000 -0.001  0.001  0.000  0.000  0.000  0.000  0.000  0.000  0.000
  1 -0.018 -0.001 -0.001 -0.006  0.000  0.000  0.000  0.000  0.000 -0.027
  2 -0.020 -0.001 -0.001 -0.006  0.000  0.000  0.000  0.000  0.000 -0.029
  3 -0.019 -0.007 -0.002  0.000  0.000  0.000  0.000  0.000  0.000 -0.028
  4 -0.021  0.000 -0.007  0.000  0.000  0.000 -0.001  0.000  0.000 -0.029
  5 -0.002 -0.001 -0.001  0.000  0.000  0.000  0.000  0.000  0.000 -0.005
  6 -0.002 -0.001 -0.001  0.000  0.000  0.000  0.000  0.000  0.000 -0.005
  7 -0.003  0.000 -0.001 -0.002  0.000  0.000  0.000  0.000  0.000 -0.006
  8 -0.001 -0.001  0.000 -0.002  0.000  0.000  0.000  0.000  0.000 -0.005
  9 -0.012  0.000  0.000  0.000  0.000  0.000  0.000  0.000  0.000 -0.012
 10 -0.015  0.000  0.000  0.000  0.000  0.000  0.000  0.000  0.000 -0.015
 11 -0.019  0.000  0.000  0.000  0.000  0.000  0.000  0.000  0.000 -0.019
 12 -0.013  0.000  0.000  0.000  0.000  0.000  0.000  0.000  0.000 -0.013
 13 -0.018  0.000  0.000  0.000  0.000  0.000  0.000  0.000  0.000 -0.018
 14 -0.012  0.000  0.000  0.000  0.000  0.000  0.000  0.000  0.000 -0.012
 15  0.001  0.000  0.000  0.000  0.000  0.000  0.000  0.000  0.000  0.001
 16 -0.040  0.000  0.000  0.000  0.000  0.000  0.000  0.000  0.000 -0.040
 17 -0.013  0.000  0.000  0.000  0.000  0.000  0.000  0.000  0.000 -0.013
 18 -0.016  0.000  0.000  0.000  0.000  0.000  0.000  0.000  0.000 -0.016
 19 -0.041  0.000  0.000  0.000  0.000  0.000  0.000  0.000  0.000 -0.041
 20  0.000  0.000  0.000  0.000  0.000  0.000  0.000  0.000  0.000  0.000
 21 -0.340  0.000  0.000  0.000  0.000  0.000  0.000  0.000  0.000 -0.340
 22  0.002  0.000  0.000  0.000  0.000  0.000  0.000  0.000  0.000  0.002
tot -0.620 -0.013 -0.013 -0.016 -0.001 -0.001 -0.002 -0.001 -0.001 -0.667
  1 -0.015 -0.001 -0.001 -0.004  0.000  0.000  0.000  0.000  0.000 -0.021
  2 -0.012 -0.001 -0.001 -0.005  0.000  0.000  0.000  0.000  0.000 -0.019
  3 -0.015 -0.003 -0.001  0.000  0.000  0.000  0.000  0.000  0.000 -0.021
  4 -0.013  0.000 -0.006  0.000  0.000  0.000 -0.001  0.000  0.000 -0.019
  5 -0.001 -0.001 -0.001  0.000  0.000  0.000  0.000  0.000  0.000 -0.004
  6 -0.002 -0.001 -0.001  0.000  0.000  0.000  0.000  0.000  0.000 -0.004
  7  0.000  0.000 -0.001 -0.001  0.000  0.000  0.000  0.000  0.000 -0.003
  8 -0.003  0.000  0.000 -0.001  0.000  0.000  0.000  0.000  0.000 -0.004
  9 -0.015  0.000  0.000  0.000  0.000  0.000  0.000  0.000  0.000 -0.015
 10 -0.008  0.000  0.000  0.000  0.000  0.000  0.000  0.000  0.000 -0.008
 11 -0.006  0.000  0.000  0.000  0.000  0.000  0.000  0.000  0.000 -0.006
 12 -0.011  0.000  0.000  0.000  0.000  0.000  0.000  0.000  0.000 -0.011
 13 -0.007  0.000  0.000  0.000  0.000  0.000  0.000  0.000  0.000 -0.007
 14 -0.013  0.000  0.000  0.000  0.000  0.000  0.000  0.000  0.000 -0.013
 15  0.001  0.000  0.000  0.000  0.000  0.000  0.000  0.000  0.000  0.001
 16 -0.028  0.000  0.000  0.000  0.000  0.000  0.000  0.000  0.000 -0.028
 17 -0.014  0.000  0.000  0.000  0.000  0.000  0.000  0.000  0.000 -0.014
 18 -0.007  0.000  0.000  0.000  0.000  0.000  0.000  0.000  0.000 -0.007
 19 -0.029  0.000  0.000  0.000  0.000  0.000  0.000  0.000  0.000 -0.029
 20  0.000  0.000  0.000  0.000  0.000  0.000  0.000  0.000  0.000  0.000
 21 -0.240  0.000  0.000  0.000  0.000  0.000  0.000  0.000  0.000 -0.240
 22  0.001  0.000  0.000  0.000  0.000  0.000  0.000  0.000  0.000  0.001
tot -0.437 -0.006 -0.011 -0.011 -0.001  0.000 -0.001 -0.001 -0.001 -0.470
 
band   4 # energy  -13.16936722 # occ.  1.00000000
 
ion      s     py     pz     px    dxy    dyz    dz2    dxz    dx2    tot
  1  0.024  0.001  0.001  0.007  0.001  0.000  0.000  0.000  0.000  0.035
  2  0.024  0.001  0.001  0.007  0.001  0.000  0.000  0.000  0.000  0.035
  3  0.024  0.007  0.002  0.000  0.000  0.000  0.000  0.000  0.001  0.035
  4  0.024  0.000  0.009  0.000  0.000  0.000  0.001  0.000  0.000  0.035
  5  0.003  0.001  0.002  0.000  0.000  0.000  0.000  0.000  0.000  0.007
  6  0.003  0.001  0.002  0.000  0.000  0.000  0.000  0.000  0.000  0.007
  7  0.003  0.000  0.001  0.002  0.000  0.000  0.000  0.000  0.000  0.007
  8  0.003  0.001  0.000  0.002  0.000  0.000  0.000  0.000  0.000  0.007
  9  0.018  0.000  0.000  0.000  0.000  0.000  0.000  0.000  0.000  0.018
 10  0.020  0.000  0.000  0.000  0.000  0.000  0.000  0.000  0.000  0.020
 11  0.018  0.000  0.000  0.000  0.000  0.000  0.000  0.000  0.000  0.018
 12  0.020  0.000  0.000  0.000  0.000  0.000  0.000  0.000  0.000  0.020
 13  0.019  0.000  0.000  0.000  0.000  0.000  0.000  0.000  0.000  0.019
 14  0.019  0.000  0.000  0.000  0.000  0.000  0.000  0.000  0.000  0.019
 15  0.049  0.000  0.000  0.000  0.000  0.000  0.000  0.000  0.000  0.049
 16  0.001  0.000  0.000  0.000  0.000  0.000  0.000  0.000  0.000  0.002
 17  0.018  0.000  0.000  0.000  0.000  0.000  0.000  0.000  0.000  0.018
 18  0.019  0.000  0.000  0.000  0.000  0.000  0.000  0.000  0.000  0.019
 19  0.000  0.000  0.000  0.000  0.000  0.000  0.000  0.000  0.000  0.000
 20  0.050  0.000  0.000  0.000  0.000  0.000  0.000  0.000  0.000  0.050
 21  0.002  0.000  0.000  0.000  0.000  0.000  0.000  0.000  0.000  0.002
 22  0.416  0.000  0.000  0.000  0.000  0.000  0.000  0.000  0.000  0.416
tot  0.776  0.014  0.017  0.020  0.002  0.001  0.002  0.001  0.001  0.835
  1  0.004  0.000  0.000 -0.001  0.000  0.000  0.000  0.000  0.000  0.003
  2 -0.004  0.000  0.000  0.001  0.000  0.000  0.000  0.000  0.000 -0.003
  3 -0.002  0.001  0.000  0.000  0.000  0.000  0.000  0.000  0.000 -0.001
  4  0.002  0.000 -0.001  0.000  0.000  0.000  0.000  0.000  0.000  0.001
  5  0.001  0.000  0.000  0.000  0.000  0.000  0.000  0.000  0.000  0.000
  6 -0.001  0.000  0.000  0.000  0.000  0.000  0.000  0.000  0.000  0.000
  7  0.000  0.000  0.000  0.000  0.000  0.000  0.000  0.000  0.000  0.000
  8  0.000  0.000  0.000  0.000  0.000  0.000  0.000  0.000  0.000  0.000
  9  0.005  0.000  0.000  0.000  0.000  0.000  0.000  0.000  0.000  0.005
 10 -0.003  0.000  0.000  0.000  0.000  0.000  0.000  0.000  0.000 -0.003
 11 -0.005  0.000  0.000  0.000  0.000  0.000  0.000  0.000  0.000 -0.005
 12  0.003  0.000  0.000  0.000  0.000  0.000  0.000  0.000  0.000  0.003
 13  0.007  0.000  0.000  0.000  0.000  0.000  0.000  0.000  0.000  0.007
 14 -0.001  0.000  0.000  0.000  0.000  0.000  0.000  0.000  0.000 -0.001
 15  0.000  0.000  0.000  0.000  0.000  0.000  0.000  0.000  0.000  0.000
 16  0.000  0.000  0.000  0.000  0.000  0.000  0.000  0.000  0.000  0.000
 17 -0.007  0.000  0.000  0.000  0.000  0.000  0.000  0.000  0.000 -0.007
 18  0.001  0.000  0.000  0.000  0.000  0.000  0.000  0.000  0.000  0.001
 19  0.000  0.000  0.000  0.000  0.000  0.000  0.000  0.000  0.000  0.000
 20  0.000  0.000  0.000  0.000  0.000  0.000  0.000  0.000  0.000  0.000
 21  0.000  0.000  0.000  0.000  0.000  0.000  0.000  0.000  0.000  0.000
 22  0.000  0.000  0.000  0.000  0.000  0.000  0.000  0.000  0.000  0.000
tot  0.000  0.001 -0.001  0.000  0.000  0.000  0.000  0.000  0.000  0.000
  1  0.018  0.001  0.001  0.006  0.000  0.000  0.000  0.000  0.000  0.027
  2  0.020  0.001  0.001  0.006  0.000  0.000  0.000  0.000  0.000  0.029
  3  0.019  0.007  0.002  0.000  0.000  0.000  0.000  0.000  0.000  0.028
  4  0.021  0.000  0.007  0.000  0.000  0.000  0.001  0.000  0.000  0.029
  5  0.002  0.001  0.001  0.000  0.000  0.000  0.000  0.000  0.000  0.005
  6  0.002  0.001  0.001  0.000  0.000  0.000  0.000  0.000  0.000  0.005
  7  0.003  0.000  0.001  0.002  0.000  0.000  0.000  0.000  0.000  0.006
  8  0.001  0.001  0.000  0.002  0.000  0.000  0.000  0.000  0.000  0.005
  9  0.015  0.000  0.000  0.000  0.000  0.000  0.000  0.000  0.000  0.015
 10  0.012  0.000  0.000  0.000  0.000  0.000  0.000  0.000  0.000  0.012
 11  0.013  0.000  0.000  0.000  0.000  0.000  0.000  0.000  0.000  0.013
 12  0.019  0.000  0.000  0.000  0.000  0.000  0.000  0.000  0.000  0.019
 13  0.012  0.000  0.000  0.000  0.000  0.000  0.000  0.000  0.000  0.012
 14  0.018  0.000  0.000  0.000  0.000  0.000  0.000  0.000  0.000  0.018
 15  0.040  0.000  0.000  0.000  0.000  0.000  0.000  0.000  0.000  0.040
 16 -0.001  0.000  0.000  0.000  0.000  0.000  0.000  0.000  0.000 -0.001
 17  0.016  0.000  0.000  0.000  0.000  0.000  0.000  0.000  0.000  0.016
 18  0.013  0.000  0.000  0.000  0.000  0.000  0.000  0.000  0.000  0.013
 19  0.000  0.000  0.000  0.000  0.000  0.000  0.000  0.000  0.000  0.000
 20  0.041  0.000  0.000  0.000  0.000  0.000  0.000  0.000  0.000  0.041
 21 -0.002  0.000  0.000  0.000  0.000  0.000  0.000  0.000  0.000 -0.002
 22  0.340  0.000  0.000  0.000  0.000  0.000  0.000  0.000  0.000  0.340
tot  0.620  0.013  0.013  0.016  0.001  0.001  0.002  0.001  0.001  0.667
  1  0.015  0.001  0.001  0.004  0.000  0.000  0.000  0.000  0.000  0.021
  2  0.012  0.001  0.001  0.005  0.000  0.000  0.000  0.000  0.000  0.019
  3  0.015  0.003  0.001  0.000  0.000  0.000  0.000  0.000  0.000  0.021
  4  0.013  0.000  0.006  0.000  0.000  0.000  0.001  0.000  0.000  0.019
  5  0.001  0.001  0.001  0.000  0.000  0.000  0.000  0.000  0.000  0.004
  6  0.002  0.001  0.001  0.000  0.000  0.000  0.000  0.000  0.000  0.004
  7  0.000  0.000  0.001  0.001  0.000  0.000  0.000  0.000  0.000  0.003
  8  0.003  0.000  0.000  0.001  0.000  0.000  0.000  0.000  0.000  0.004
  9  0.008  0.000  0.000  0.000  0.000  0.000  0.000  0.000  0.000  0.008
 10  0.015  0.000  0.000  0.000  0.000  0.000  0.000  0.000  0.000  0.015
 11  0.011  0.000  0.000  0.000  0.000  0.000  0.000  0.000  0.000  0.011
 12  0.006  0.000  0.000  0.000  0.000  0.000  0.000  0.000  0.000  0.006
 13  0.013  0.000  0.000  0.000  0.000  0.000  0.000  0.000  0.000  0.013
 14  0.007  0.000  0.000  0.000  0.000  0.000  0.000  0.000  0.000  0.007
 15  0.028  0.000  0.000  0.000  0.000  0.000  0.000  0.000  0.000  0.028
 16 -0.001  0.000  0.000  0.000  0.000  0.000  0.000  0.000  0.000 -0.001
 17  0.007  0.000  0.000  0.000  0.000  0.000  0.000  0.000  0.000  0.007
 18  0.014  0.000  0.000  0.000  0.000  0.000  0.000  0.000  0.000  0.014
 19  0.000  0.000  0.000  0.000  0.000  0.000  0.000  0.000  0.000  0.000
 20  0.029  0.000  0.000  0.000  0.000  0.000  0.000  0.000  0.000  0.029
 21 -0.001  0.000  0.000  0.000  0.000  0.000  0.000  0.000  0.000 -0.001
 22  0.240  0.000  0.000  0.000  0.000  0.000  0.000  0.000  0.000  0.240
tot  0.437  0.006  0.011  0.011  0.001  0.000  0.001  0.001  0.001  0.470
 
k-point    2 :    0.50000000 0.25735294 0.74264706     weight = 0.00806452

band   1 # energy  -13.18491170 # occ.  1.00000000
 
ion      s     py     pz     px    dxy    dyz    dz2    dxz    dx2    tot
  1  0.004  0.003  0.001  0.013  0.000  0.000  0.000  0.000  0.000  0.021
  2  0.041  0.000  0.000  0.001  0.001  0.000  0.000  0.000  0.000  0.045
  3  0.026  0.007  0.002  0.000  0.000  0.000  0.000  0.000  0.001  0.036
  4  0.026  0.000  0.008  0.000  0.000  0.000  0.001  0.000  0.000  0.036
  5  0.009  0.001  0.002  0.000  0.001  0.000  0.000  0.000  0.000  0.013
  6  0.000  0.001  0.001  0.001  0.000  0.000  0.000  0.000  0.000  0.004
  7  0.002  0.000  0.001  0.002  0.000  0.000  0.001  0.000  0.000  0.006
  8  0.002  0.001  0.000  0.002  0.000  0.000  0.000  0.000  0.000  0.006
  9  0.005  0.000  0.000  0.000  0.000  0.000  0.000  0.000  0.000  0.006
 10  0.011  0.000  0.000  0.000  0.000  0.000  0.000  0.000  0.000  0.011
 11  0.032  0.000  0.000  0.000  0.000  0.000  0.000  0.000  0.000  0.032
 12  0.030  0.000  0.000  0.000  0.000  0.000  0.000  0.000  0.000  0.030
 13  0.005  0.000  0.000  0.000  0.000  0.000  0.000  0.000  0.000  0.005
 14  0.011  0.000  0.000  0.000  0.000  0.000  0.000  0.000  0.000  0.011
 15  0.017  0.000  0.000  0.000  0.000  0.000  0.000  0.000  0.000  0.017
 16  0.028  0.000  0.000  0.000  0.000  0.000  0.000  0.000  0.000  0.028
 17  0.032  0.000  0.000  0.000  0.000  0.000  0.000  0.000  0.000  0.033
 18  0.030  0.000  0.000  0.000  0.000  0.000  0.000  0.000  0.000  0.030
 19  0.035  0.000  0.000  0.000  0.000  0.000  0.000  0.000  0.000  0.035
 20  0.029  0.000  0.000  0.000  0.000  0.000  0.000  0.000  0.000  0.030
 21  0.231  0.000  0.000  0.000  0.000  0.000  0.000  0.000  0.000  0.231
 22  0.170  0.000  0.000  0.000  0.000  0.000  0.000  0.000  0.000  0.170
tot  0.777  0.014  0.017  0.021  0.002  0.001  0.002  0.001  0.001  0.835
  1  0.004 -0.003 -0.001 -0.012  0.000  0.000  0.000  0.000  0.000 -0.012
  2 -0.041  0.000  0.000  0.001 -0.001  0.000  0.000  0.000  0.000 -0.042